<?xml version="1.0"?>
<VTKFile type="UnstructuredGrid" version="0.1" byte_order="LittleEndian" header_type="UInt32" compressor="vtkZLibDataCompressor">
  <UnstructuredGrid>
    <Piece NumberOfPoints="310" NumberOfCells="20">
      <PointData>
      </PointData>
      <CellData>
        <DataArray type="Int32" Name="cellID" format="ascii" RangeMin="0" RangeMax="19">
          0 1 2 3 4 5
          6 7 8 9 10 11
          12 13 14 15 16 17
          18 19
        </DataArray>
        <DataArray type="Float64" Name="cellVolume" format="ascii" RangeMin="0.068222286279" RangeMax="0.88095930366">
          0.59374425224 0.68684976592 0.15655487722 0.20079340773 0.074667580096 0.25145657534
          0.77795874635 0.2801994543 0.1909050372 0.21451459715 0.5269777659 0.59368686911
          0.41592842082 0.88095930366 0.73005754431 0.52353306038 0.37566490953 0.35501978823
          0.10230575824 0.068222286279
        </DataArray>
        <DataArray type="Int32" Name="cellFaces" format="ascii" RangeMin="5" RangeMax="15">
          8 15 7 10 8 10
          9 10 11 9 10 11
          8 14 9 9 13 12
          7 5
        </DataArray>
        <DataArray type="Float64" Name="cellSurfaceArea" format="ascii" RangeMin="1.1707400634" RangeMax="5.8028168171">
          4.5118482792 4.6239645802 2.0442436009 2.3156532448 1.1707400634 2.6542614337
          5.3823359165 2.6332703803 2.2679260279 3.1046854453 5.0049851564 4.3337151596
          3.7886799067 5.8028168171 5.1135597406 4.4775246782 3.6436767302 3.087851774
          1.5603781812 1.4036628853
        </DataArray>
      </CellData>
      <Points>
        <DataArray type="Float32" Name="Points" NumberOfComponents="3" format="ascii" RangeMin="0.32275478873" RangeMax="1.7320508076">
          -1 -1 -1 0.55127376318 -0.89753973484 -1
          -1 -0.5443110466 -0.096574246883 0.33014735579 -1 -1
          -1 -1 -0.48059764504 -0.065526552498 -0.11304676533 -1
          -0.21986344457 -0.10174112767 -0.45242118835 -0.21502323449 -0.12142205983 -0.41238754988
          -0.74201107025 0.070627383888 -1 -1 0.015839505941 -1
          -1 -0.40604114532 -0.18443343043 -0.078894875944 -0.33837297559 -0.2827013135
          -0.15341897309 -0.0057037696242 -0.3899268806 1 -1 -1
          1 0.31399190426 -0.14060999453 0.34587723017 0.33233115077 -0.53217023611
          -0.065526552498 -0.11304676533 -1 -0.058716278523 -0.34220144153 -0.26724356413
          0.83000153303 0.3337277472 -0.065312862396 1 0.28549575806 -0.26894426346
          1 -0.42832180858 -1 0.04145366326 0.16859960556 -0.52395838499
          0.753028512 0.37394359708 -0.33384549618 0.91158640385 0.35865679383 -0.10529156029
          0.40226879716 0.35296550393 -0.57615679502 1 -0.94385755062 -0.55028623343
          0.1306720674 0.10917368531 -0.99682426453 0.12950871885 0.10678794235 -1
          1 -1 -0.70354437828 -0.21986344457 -0.10174112767 -0.45242118835
          0.31568828225 0.05217634514 -0.042298831046 0.76911079884 -1 -1
          -0.15221144259 -0.010074826889 -0.38065609336 -0.21502323449 -0.12142205983 -0.41238754988
          -0.078894875944 -0.33837297559 -0.2827013135 0.55127376318 -0.89753973484 -1
          0.64152425528 0.17943027616 0.037847824395 1 -0.09357996285 -0.095085151494
          1 -0.42832180858 -1 0.753028512 0.37394359708 -0.33384549618
          0.41629901528 0.54984760284 -0.76829826832 0.35249015689 0.60706198215 -1
          1 0.28549575806 -0.26894426346 0.1306720674 0.10917368531 -0.99682426453
          0.40226879716 0.35296550393 -0.57615679502 1 0.40237349272 -1
          0.13040538132 0.11131484061 -1 0.12950871885 0.10678794235 -1
          -0.065526552498 -0.11304676533 -1 0.13040538132 0.11131484061 -1
          0.12950871885 0.10678794235 -1 -0.64852577448 1 -0.96045482159
          -0.12354334444 0.72956252098 -0.70370256901 0.1306720674 0.10917368531 -0.99682426453
          -0.68697160482 1 -1 -0.14603702724 0.9223254323 -1
          -0.10479854792 0.6430914402 -0.6301291585 -0.52575832605 1 -1
          -0.28981384635 0.67992979288 -0.57198786736 -0.15090793371 0.68670535088 -0.6274009347
          0.04145366326 0.16859960556 -0.52395838499 -0.15341897309 -0.0057037696242 -0.3899268806
          -0.21986344457 -0.10174112767 -0.45242118835 -0.74201107025 0.070627383888 -1
          0.40226879716 0.35296550393 -0.57615679502 0.13040538132 0.11131484061 -1
          -0.14603702724 0.9223254323 -1 0.072511054575 0.95302039385 -1
          0.34587723017 0.33233115077 -0.53217023611 0.35249015689 0.60706198215 -1
          -0.10479854792 0.6430914402 -0.6301291585 -0.12354334444 0.72956252098 -0.70370256901
          0.1734430939 0.90663939714 -1 0.41629901528 0.54984760284 -0.76829826832
          0.04145366326 0.16859960556 -0.52395838499 0.1306720674 0.10917368531 -0.99682426453
          0.1734430939 0.90663939714 -1 0.753028512 0.37394359708 -0.33384549618
          0.15098084509 1 -1 1 1 -1
          1 0.40237349272 -1 1 0.79559731483 0.047057434916
          0.41629901528 0.54984760284 -0.76829826832 0.35249015689 0.60706198215 -1
          1 0.28549575806 -0.26894426346 0.99282360077 0.79218709469 0.047182604671
          1 1 0.060174334794 0.86121088266 1 0.048075541854
          1 0.31399190426 -0.14060999453 0.99067914486 1 0.060621138662
          0.91912519932 0.72405898571 0.035567432642 0.91158640385 0.35865679383 -0.10529156029
          -1 0.015839505941 -1 -0.74201107025 0.070627383888 -1
          -1 1 -1 -0.15221144259 -0.010074826889 -0.38065609336
          -1 1 0.60883879662 -1 -0.40604114532 -0.18443343043
          -0.27605175972 0.75896430016 0.11452306062 -0.68697160482 1 -1
          -0.21502323449 -0.12142205983 -0.41238754988 -0.64852577448 1 -0.96045482159
          -0.4771207571 1 0.35003393888 -0.28981384635 0.67992979288 -0.57198786736
          -0.21986344457 -0.10174112767 -0.45242118835 -0.15341897309 -0.0057037696242 -0.3899268806
          -0.28981384635 0.67992979288 -0.57198786736 -0.15221144259 -0.010074826889 -0.38065609336
          -0.15090793371 0.68670535088 -0.6274009347 0.47587445378 0.83150792122 0.13128523529
          0.64152425528 0.17943027616 0.037847824395 -0.020722854882 0.80486786366 0.30804505944
          -0.27605175972 0.75896430016 0.11452306062 0.47100538015 0.23926998675 0.19390654564
          0.34587723017 0.33233115077 -0.53217023611 -0.10479854792 0.6430914402 -0.6301291585
          0.04145366326 0.16859960556 -0.52395838499 -0.15341897309 -0.0057037696242 -0.3899268806
          0.83000153303 0.3337277472 -0.065312862396 0.31568828225 0.05217634514 -0.042298831046
          0.73869985342 0.54470956326 0.074527852237 0.46497750282 0.25930717587 0.20506009459
          0.14647442102 1 -1 0.1734430939 0.90663939714 -1
          -0.15090793371 0.68670535088 -0.6274009347 0.71410226822 1 0.079842671752
          0.91912519932 0.72405898571 0.035567432642 0.86121088266 1 0.048075541854
          0.072511054575 0.95302039385 -1 0.15098084509 1 -1
          0.34587723017 0.33233115077 -0.53217023611 0.73869985342 0.54470956326 0.074527852237
          -0.12354334444 0.72956252098 -0.70370256901 -0.10479854792 0.6430914402 -0.6301291585
          0.40226879716 0.35296550393 -0.57615679502 0.41629901528 0.54984760284 -0.76829826832
          0.753028512 0.37394359708 -0.33384549618 0.47587445378 0.83150792122 0.13128523529
          0.83000153303 0.3337277472 -0.065312862396 0.91158640385 0.35865679383 -0.10529156029
          -0.52575832605 1 -1 0.71410226822 1 0.079842671752
          -0.14603702724 0.9223254323 -1 0.47587445378 0.83150792122 0.13128523529
          -0.28541895747 1 0.44709926844 -0.020722854882 0.80486786366 0.30804505944
          -0.27605175972 0.75896430016 0.11452306062 -0.4771207571 1 0.35003393888
          -0.64852577448 1 -0.96045482159 0.14647442102 1 -1
          0.072511054575 0.95302039385 -1 -0.28981384635 0.67992979288 -0.57198786736
          -0.12354334444 0.72956252098 -0.70370256901 -0.15090793371 0.68670535088 -0.6274009347
          -0.22543926537 -0.46346879005 -0.036814603955 0.55127376318 -0.89753973484 -1
          -1 -1 -0.48059764504 -0.058716278523 -0.34220144153 -0.26724356413
          -0.38319727778 -0.55779641867 0.13339531422 1 -1 -0.50198179483
          0.47373703122 -1 -0.10397179425 1 -0.94385755062 -0.55028623343
          0.33014735579 -1 -1 -0.078894875944 -0.33837297559 -0.2827013135
          -1 -0.5443110466 -0.096574246883 -0.3420599401 -1 0.42505988479
          1 -1 -0.70354437828 0.76911079884 -1 -1
          -1 -0.68787956238 0.23971526325 -1 -1 0.44652822614
          1 -0.67122703791 0.67064487934 1 -1 -0.50198179483
          1 -0.94385755062 -0.55028623343 0.64152425528 0.17943027616 0.037847824395
          0.50868088007 -0.24067847431 0.77812033892 -0.058716278523 -0.34220144153 -0.26724356413
          1 -0.09357996285 -0.095085151494 0.43284642696 -0.051985803992 0.63266992569
          -0.22543926537 -0.46346879005 -0.036814603955 1 -1 0.30033829808
          0.47373703122 -1 -0.10397179425 -0.10029170662 -0.29746037722 0.24631212652
          0.39075937867 0.18775828183 0.34651762247 0.23322467506 0.047880839556 0.41039419174
          0.40621107817 0.17205996811 0.37244158983 0.43439978361 0.21740028262 0.27342700958
          0.31568828225 0.05217634514 -0.042298831046 0.47100538015 0.23926998675 0.19390654564
          -0.3420599401 -1 0.42505988479 0.47373703122 -1 -0.10397179425
          1 -0.88235014677 1 -0.38319727778 -0.55779641867 0.13339531422
          0.27832409739 -1 1 1 -1 1
          1 -0.67122703791 0.67064487934 1 -1 0.30033829808
          0.50868088007 -0.24067847431 0.77812033892 0.60164111853 -0.47740498185 1
          -0.10029170662 -0.29746037722 0.24631212652 -0.22543926537 -0.46346879005 -0.036814603955
          -0.21502323449 -0.12142205983 -0.41238754988 -0.30813071132 1 0.47261831164
          -1 1 0.60883879662 -0.15221144259 -0.010074826889 -0.38065609336
          -0.38319727778 -0.55779641867 0.13339531422 -0.22543926537 -0.46346879005 -0.036814603955
          -1 1 0.6857188344 -0.058716278523 -0.34220144153 -0.26724356413
          -0.078894875944 -0.33837297559 -0.2827013135 -1 -0.68787956238 0.23971526325
          0.39075937867 0.18775828183 0.34651762247 -1 0.0016917744651 0.79530620575
          -0.10029170662 -0.29746037722 0.24631212652 0.23322467506 0.047880839556 0.41039419174
          0.31568828225 0.05217634514 -0.042298831046 -0.28541895747 1 0.44709926844
          0.46497750282 0.25930717587 0.20506009459 -0.4771207571 1 0.35003393888
          -1 -0.5443110466 -0.096574246883 -1 -0.40604114532 -0.18443343043
          -0.020722854882 0.80486786366 0.30804505944 -0.27605175972 0.75896430016 0.11452306062
          0.43439978361 0.21740028262 0.27342700958 0.47100538015 0.23926998675 0.19390654564
          0.27832409739 -1 1 -1 0.0016917744651 0.79530620575
          0.60164111853 -0.47740498185 1 0.23322467506 0.047880839556 0.41039419174
          -1 -1 1 -1 -0.075518116355 1
          -0.38319727778 -0.55779641867 0.13339531422 0.47565406561 -0.19397805631 1
          -0.10029170662 -0.29746037722 0.24631212652 -0.3420599401 -1 0.42505988479
          -1 -1 0.44652822614 -1 -0.68787956238 0.23971526325
          0.50868088007 -0.24067847431 0.77812033892 0.43284642696 -0.051985803992 0.63266992569
          -1 0.0016917744651 0.79530620575 0.47565406561 -0.19397805631 1
          -1 1 0.6857188344 -0.30813071132 1 0.47261831164
          -1 -0.075518116355 1 0.39075937867 0.18775828183 0.34651762247
          -1 1 1 0.04541317001 0.63563722372 1
          0.40621107817 0.17205996811 0.37244158983 0.48535758257 0.13058571517 1
          -0.30370566249 1 0.53717106581 -0.37045913935 1 1
          0.43284642696 -0.051985803992 0.63266992569 0.23322467506 0.047880839556 0.41039419174
          0.50868088007 -0.24067847431 0.77812033892 1 -0.09357996285 -0.095085151494
          0.47565406561 -0.19397805631 1 1 0.79559731483 0.047057434916
          0.57215237617 0.21336980164 1 0.60164111853 -0.47740498185 1
          1 0.31399190426 -0.14060999453 0.43284642696 -0.051985803992 0.63266992569
          0.48535758257 0.13058571517 1 1 0.41369348764 1
          0.43439978361 0.21740028262 0.27342700958 0.40621107817 0.17205996811 0.37244158983
          1 -0.67122703791 0.67064487934 1 -0.88235014677 1
          0.91158640385 0.35865679383 -0.10529156029 0.73869985342 0.54470956326 0.074527852237
          0.46497750282 0.25930717587 0.20506009459 0.47100538015 0.23926998675 0.19390654564
          0.83000153303 0.3337277472 -0.065312862396 0.64152425528 0.17943027616 0.037847824395
          0.91912519932 0.72405898571 0.035567432642 0.99282360077 0.79218709469 0.047182604671
          0.99282360077 0.79218709469 0.047182604671 -0.020722854882 0.80486786366 0.30804505944
          -0.30370566249 1 0.53717106581 0.91912519932 0.72405898571 0.035567432642
          0.57215237617 0.21336980164 1 -0.28541895747 1 0.44709926844
          0.58009374142 0.66607111692 1 0.04541317001 0.63563722372 1
          0.48535758257 0.13058571517 1 -0.30813071132 1 0.47261831164
          0.99067914486 1 0.060621138662 0.75411176682 1 0.60969775915
          0.86121088266 1 0.048075541854 0.39075937867 0.18775828183 0.34651762247
          0.73869985342 0.54470956326 0.074527852237 0.46497750282 0.25930717587 0.20506009459
          0.47587445378 0.83150792122 0.13128523529 0.71410226822 1 0.079842671752
          0.43439978361 0.21740028262 0.27342700958 0.40621107817 0.17205996811 0.37244158983
          1 1 1 0.57215237617 0.21336980164 1
          0.75411176682 1 0.60969775915 1 0.79559731483 0.047057434916
          0.99282360077 0.79218709469 0.047182604671 1 0.41369348764 1
          0.58009374142 0.66607111692 1 0.76665836573 1 1
          0.99067914486 1 0.060621138662 1 1 0.060174334794
          0.76665836573 1 1 0.75411176682 1 0.60969775915
          0.04541317001 0.63563722372 1 -0.30370566249 1 0.53717106581
          -0.37045913935 1 1 0.58009374142 0.66607111692 1
        </DataArray>
      </Points>
      <Cells>
        <DataArray type="Int64" Name="connectivity" format="ascii" RangeMin="0" RangeMax="309">
          0 1 2 3 4 5
          6 7 8 9 10 11
          12 13 14 15 16 17
          18 19 20 21 22 23
          24 25 26 27 28 29
          30 31 32 33 34 35
          36 37 38 39 40 41
          42 43 44 45 46 47
          48 49 50 51 52 53
          54 55 56 57 58 59
          60 61 62 63 64 65
          66 67 68 69 70 71
          72 73 74 75 76 77
          78 79 80 81 82 83
          84 85 86 87 88 89
          90 91 92 93 94 95
          96 97 98 99 100 101
          102 103 104 105 106 107
          108 109 110 111 112 113
          114 115 116 117 118 119
          120 121 122 123 124 125
          126 127 128 129 130 131
          132 133 134 135 136 137
          138 139 140 141 142 143
          144 145 146 147 148 149
          150 151 152 153 154 155
          156 157 158 159 160 161
          162 163 164 165 166 167
          168 169 170 171 172 173
          174 175 176 177 178 179
          180 181 182 183 184 185
          186 187 188 189 190 191
          192 193 194 195 196 197
          198 199 200 201 202 203
          204 205 206 207 208 209
          210 211 212 213 214 215
          216 217 218 219 220 221
          222 223 224 225 226 227
          228 229 230 231 232 233
          234 235 236 237 238 239
          240 241 242 243 244 245
          246 247 248 249 250 251
          252 253 254 255 256 257
          258 259 260 261 262 263
          264 265 266 267 268 269
          270 271 272 273 274 275
          276 277 278 279 280 281
          282 283 284 285 286 287
          288 289 290 291 292 293
          294 295 296 297 298 299
          300 301 302 303 304 305
          306 307 308 309
        </DataArray>
        <DataArray type="Int64" Name="offsets" format="ascii" RangeMin="12" RangeMax="310">
          12 38 48 64 76 92
          106 122 140 154 170 188
          200 224 238 252 274 294
          304 310
        </DataArray>
        <DataArray type="UInt8" Name="types" format="ascii" RangeMin="42" RangeMax="42">
          42 42 42 42 42 42
          42 42 42 42 42 42
          42 42 42 42 42 42
          42 42
        </DataArray>
        <DataArray type="Int64" Name="faces" format="ascii" RangeMin="0" RangeMax="309">
          8 5 1 11 7 6
          5 5 1 3 4 2
          11 6 1 5 8 9
          0 3 4 2 10 7
          11 5 2 4 0 9
          10 3 3 0 4 3
          5 6 8 5 6 7
          10 9 8 15 6 13
          20 27 16 35 31 7
          13 28 25 37 14 19
          20 3 13 31 28 5
          14 37 36 18 23 4
          14 23 22 19 4 15
          21 26 24 7 15 18
          36 30 32 12 21 5
          15 24 22 23 18 5
          16 29 33 34 35 6
          16 27 26 21 12 29
          6 17 25 28 31 35
          34 5 17 30 36 37
          25 5 17 34 33 32
          30 6 19 22 24 26
          27 20 4 29 12 32
          33 7 5 39 40 41
          45 42 3 39 44 40
          6 39 42 38 47 43
          44 5 40 44 43 46
          41 5 41 46 47 38
          45 3 42 45 38 3
          43 47 46 10 3 49
          50 53 7 49 55 57
          54 63 48 50 6 49
          53 60 56 52 55 6
          50 48 62 61 60 53
          6 51 57 55 52 59
          58 3 51 54 57 6
          51 58 61 62 63 54
          3 52 56 59 5 56
          60 61 58 59 3 62
          48 63 8 5 65 75
          64 73 69 6 65 66
          71 70 74 75 5 65
          69 72 67 66 3 66
          67 71 7 67 72 73
          64 68 70 71 4 68
          64 75 74 3 68 74
          70 3 69 73 72 10
          4 77 91 88 84 7
          77 82 76 78 87 90
          91 5 77 84 80 83
          82 5 78 79 86 89
          87 5 78 76 83 80
          79 6 79 80 84 88
          81 86 5 81 88 91
          90 85 4 81 85 89
          86 3 82 83 76 4
          85 90 87 89 9 5
          93 92 97 100 104 4
          93 99 94 92 6 93
          104 105 103 101 99 4
          94 96 97 92 5 94
          99 101 102 96 4 95
          105 104 100 4 95 98
          103 105 6 95 100 97
          96 102 98 4 98 102
          101 103 10 7 107 119
          110 118 114 116 117 6
          107 112 111 121 113 119
          4 107 117 106 112 5
          108 106 117 116 115 5
          108 109 111 112 106 6
          108 115 114 118 120 109
          4 109 120 121 111 5
          110 113 121 120 118 3
          110 119 113 3 114 115
          116 11 7 123 135 136
          139 126 127 129 7 123
          128 132 133 130 134 135
          4 123 129 122 128 3
          124 133 132 6 124 137
          131 138 130 133 6 124
          132 128 122 125 137 5
          125 127 126 131 137 4
          125 122 129 127 4 126
          139 138 131 5 130 138
          139 136 134 3 134 136
          135 9 4 141 143 145
          144 6 141 149 150 152
          153 143 6 141 144 147
          148 140 149 6 142 140
          148 151 153 152 4 142
          150 149 140 3 142 152
          150 5 143 153 151 146
          145 4 144 145 146 147
          4 146 151 148 147 10
          6 155 167 166 161 157
          163 3 155 162 167 5
          155 163 164 156 162 8
          156 169 165 160 159 166
          167 162 4 156 164 168
          169 6 157 154 158 168
          164 163 5 157 161 159
          160 154 4 158 165 169
          168 4 158 154 160 165
          3 159 161 166 11 5
          171 172 175 178 180 5
          171 179 170 176 172 3
          171 180 179 5 172 176
          173 186 175 3 173 187
          186 8 173 176 170 174
          177 184 185 187 4 174
          181 183 177 6 174 170
          179 180 178 181 8 175
          186 187 185 182 183 181
          178 4 177 183 182 184
          3 182 185 184 8 4
          189 199 191 188 6 189
          195 194 196 198 199 5
          189 188 192 193 195 4
          190 197 196 194 4 190
          193 192 197 4 190 194
          195 193 3 191 199 198
          6 191 198 196 197 192
          188 14 6 201 215 220
          216 222 210 5 201 206
          202 217 215 5 201 210
          213 211 206 6 202 219
          200 203 221 217 6 202
          206 211 209 218 219 5
          203 200 208 207 214 6
          203 214 223 216 220 221
          6 204 205 207 208 218
          209 3 204 212 205 5
          204 209 211 213 212 8
          205 212 213 210 222 223
          214 207 4 208 200 219
          218 4 215 217 221 220
          3 216 223 222 9 5
          225 235 230 232 227 5
          225 229 228 234 235 5
          225 227 237 231 229 4
          226 231 237 236 5 226
          224 228 229 231 6 226
          236 232 230 233 224 4
          227 232 236 237 4 228
          224 233 234 4 230 235
          234 233 9 4 239 247
          246 250 6 239 242 244
          249 245 247 5 239 250
          251 238 242 5 240 238
          251 243 241 4 240 244
          242 238 5 240 241 248
          249 244 6 241 243 246
          247 245 248 4 243 251
          250 246 3 245 249 248
          13 5 253 258 266 270
          271 6 253 264 265 261
          255 258 8 253 271 269
          262 263 259 252 264 4
          254 257 252 259 6 254
          260 256 261 265 257 4
          254 259 263 260 5 255
          273 272 266 258 4 255
          261 256 273 8 256 260
          263 262 268 267 272 273
          4 257 265 264 252 3
          262 269 268 4 266 272
          267 270 5 267 268 269
          271 270 12 4 275 289
          288 290 6 275 279 283
          287 292 289 4 275 290
          291 279 6 276 281 282
          293 287 283 4 276 285
          280 281 7 276 283 279
          291 286 284 285 4 277
          274 284 286 8 277 288
          289 292 293 282 278 274
          5 277 286 291 290 288
          5 278 280 285 284 274
          4 278 282 281 280 3
          287 293 292 7 4 295
          299 297 298 5 295 300
          301 294 299 5 295 298
          302 296 300 3 296 301
          300 5 296 302 303 294
          301 4 297 303 302 298
          4 297 299 294 303 5
          3 305 309 304 4 305
          307 306 309 4 305 304
          308 307 3 306 307 308
          4 306 308 304 309
        </DataArray>
        <DataArray type="Int64" Name="faceoffsets" format="ascii" RangeMin="45" RangeMax="1145">
          45 139 177 236 281 340
          392 451 517 569 628 694
          739 826 878 930 1010 1083
          1121 1145
        </DataArray>
      </Cells>
    </Piece>
  </UnstructuredGrid>
</VTKFile>
