<?xml version="1.0"?>
<VTKFile type="UnstructuredGrid" version="0.1" byte_order="LittleEndian" header_type="UInt32" compressor="vtkZLibDataCompressor">
  <UnstructuredGrid>
    <Piece NumberOfPoints="340" NumberOfCells="20">
      <PointData>
      </PointData>
      <CellData>
        <DataArray type="Int32" Name="cellID" format="ascii" RangeMin="0" RangeMax="19">
          0 1 2 3 4 5
          6 7 8 9 10 11
          12 13 14 15 16 17
          18 19
        </DataArray>
        <DataArray type="Float64" Name="cellVolume" format="ascii" RangeMin="0.10693684722" RangeMax="0.76747307292">
          0.31033403849 0.19921092437 0.32320945181 0.68835692109 0.27425269067 0.55962083739
          0.29626930401 0.36876331904 0.76747307292 0.50401105103 0.36843823395 0.45944175959
          0.37363730149 0.55874045492 0.54297896665 0.10693684722 0.17385927157 0.31281678296
          0.50523222692 0.3064165439
        </DataArray>
        <DataArray type="Int32" Name="cellFaces" format="ascii" RangeMin="5" RangeMax="14">
          8 8 9 11 14 11
          8 10 13 12 13 11
          10 12 13 5 10 12
          10 10
        </DataArray>
        <DataArray type="Float64" Name="cellSurfaceArea" format="ascii" RangeMin="1.5699254494" RangeMax="5.2747079353">
          2.8540825095 2.2877144869 3.1222621023 4.8872842257 2.6049191904 4.1123651086
          2.814869897 3.5168315561 5.2747079353 4.3059386829 3.082587057 4.1463657507
          3.0921884435 4.3147652277 3.9803574094 1.5699254494 2.0986572192 3.0237267157
          4.1778615443 3.099391706
        </DataArray>
      </CellData>
      <Points>
        <DataArray type="Float32" Name="Points" NumberOfComponents="3" format="ascii" RangeMin="0.27521913462" RangeMax="1.7320508076">
          -1 -1 -1 -0.2188629806 -1 -1
          -1 -0.4112970233 -1 -0.16230651736 -0.54783177376 -1
          -1 -0.57744985819 -0.11366268247 -0.45745521784 -0.75884371996 -0.019703377038
          -0.49655801058 -1 0.012903337367 -0.544018507 -0.5829474926 -0.057457026094
          -0.21555842459 -0.55869811773 -0.81071919203 -1 -0.48688730597 -0.26798832417
          -0.82567048073 -0.53270703554 -0.099430248141 -1 -1 -0.048212263733
          -0.2188629806 -1 -1 0.43193790317 -1 -1
          -0.16230651736 -0.54783177376 -1 -0.21555842459 -0.55869811773 -0.81071919203
          -0.0074988445267 -0.76279240847 0.023370742798 -0.45745521784 -0.75884371996 -0.019703377038
          0.30676025152 -0.50383591652 -1 -0.12481019646 -0.51031243801 -1
          -0.37955522537 -0.76704955101 0.018032388762 0.047786492854 -1 0.035664312541
          -0.49655801058 -1 0.012903337367 -0.46381258965 -1 0.028040712699
          -1 -0.4112970233 -1 -0.12481019646 -0.51031243801 -1
          -1 -0.48688730597 -0.26798832417 -0.41806852818 0.47704043984 -1
          -0.036194033921 -0.053949464113 -1 -1 0.14459705353 -1
          -0.51745331287 -0.40778687596 -0.040129587054 -0.28915959597 0.015770867467 -0.37993404269
          -0.21555842459 -0.55869811773 -0.81071919203 -0.16230651736 -0.54783177376 -1
          -0.33276838064 0.36995184422 -0.81937640905 -0.22027330101 0.27937278152 -1
          -0.82567048073 -0.53270703554 -0.099430248141 -0.544018507 -0.5829474926 -0.057457026094
          0.47803163528 0.61698758602 -0.044606871903 0.84937465191 1 -0.0083480915055
          -0.19171303511 0.54087638855 -0.39616900682 1 1 -1
          0.27200651169 0.42842781544 -0.12653152645 1 1 -0.070237919688
          -0.33276838064 0.36995184422 -0.81937640905 -0.38178220391 1 -0.71974277496
          0.80020743608 -0.0051905531436 -1 1 0.11042431742 -1
          1 0.81531298161 -0.16715937853 -0.49097135663 1 -1
          -0.1834897846 0.46508419514 -0.40218156576 0.33472549915 0.50722527504 -0.076312631369
          -0.41806852818 0.47704043984 -1 -0.22027330101 0.27937278152 -1
          0.84125381708 0.98815768957 -0.0075272950344 0.88050854206 1 -0.018356444314
          0.30676025152 -0.50383591652 -1 -0.37955522537 -0.76704955101 0.018032388762
          -0.28915959597 0.015770867467 -0.37993404269 0.40450757742 -0.30610385537 -1
          -0.26831459999 -0.44756564498 0.080217339098 -0.45745521784 -0.75884371996 -0.019703377038
          -0.036194033921 -0.053949464113 -1 0.095282994211 -0.28606384993 0.040464684367
          0.26046660542 -0.31614369154 -0.23580518365 0.10123053938 -0.25544992089 0.015597688034
          -0.12481019646 -0.51031243801 -1 -0.21555842459 -0.55869811773 -0.81071919203
          -0.51745331287 -0.40778687596 -0.040129587054 -0.26623472571 -0.0090648634359 -0.28307062387
          -0.544018507 -0.5829474926 -0.057457026094 0.17628324032 -0.38715562224 0.033871367574
          -0.47700873017 -0.37427449226 -0.019591268152 0.10585882515 -0.27840054035 0.036395810544
          -0.27838504314 -0.43043971062 0.07574159652 0.12628343701 -0.31686285138 0.044844750315
          0.14004020393 -0.44303491712 0.081233434379 0.15407399833 -0.41827809811 0.071367882192
          -0.0074988445267 -0.76279240847 0.023370742798 0.13428154588 -0.4536831975 0.083951950073
          0.43193790317 -1 -1 1 -1 -1
          0.40450757742 -0.30610385537 -1 1 -0.26286807656 -1
          1 -1 0.23921193182 1 -0.56315892935 -0.15533338487
          0.047786492854 -1 0.035664312541 0.17628324032 -0.38715562224 0.033871367574
          0.15407399833 -0.41827809811 0.071367882192 0.30676025152 -0.50383591652 -1
          0.26046660542 -0.31614369154 -0.23580518365 0.77858674526 -0.19747811556 -1
          0.18415443599 -0.4656509459 0.10143963993 -0.0074988445267 -0.76279240847 0.023370742798
          0.14004020393 -0.44303491712 0.081233434379 0.82382673025 -1 0.31367653608
          0.13428154588 -0.4536831975 0.083951950073 0.14333324134 -0.45346850157 0.087201468647
          0.40450757742 -0.30610385537 -1 0.77858674526 -0.19747811556 -1
          0.10123053938 -0.25544992089 0.015597688034 0.27200651169 0.42842781544 -0.12653152645
          -0.1834897846 0.46508419514 -0.40218156576 -0.036194033921 -0.053949464113 -1
          -0.33276838064 0.36995184422 -0.81937640905 0.26046660542 -0.31614369154 -0.23580518365
          0.80020743608 -0.0051905531436 -1 -0.22027330101 0.27937278152 -1
          -0.28915959597 0.015770867467 -0.37993404269 -0.26623472571 -0.0090648634359 -0.28307062387
          0.77858674526 -0.19747811556 -1 1 -0.26286807656 -1
          0.80020743608 -0.0051905531436 -1 1 0.11042431742 -1
          0.17628324032 -0.38715562224 0.033871367574 1 -0.56315892935 -0.15533338487
          0.27200651169 0.42842781544 -0.12653152645 1 0.81531298161 -0.16715937853
          0.47803163528 0.61698758602 -0.044606871903 0.26046660542 -0.31614369154 -0.23580518365
          0.10123053938 -0.25544992089 0.015597688034 0.12452341616 -0.2436478734 0.044624131173
          0.10585882515 -0.27840054035 0.036395810544 0.12628343701 -0.31686285138 0.044844750315
          0.33472549915 0.50722527504 -0.076312631369 0.37199312449 0.50801545382 -0.019120959565
          -1 0.14459705353 -1 -1 -0.04469871521 0.28330671787
          -1 1 -1 -1 1 0.17813457549
          -0.47700873017 -0.37427449226 -0.019591268152 -0.26623472571 -0.0090648634359 -0.28307062387
          -0.1834897846 0.46508419514 -0.40218156576 -1 0.88573783636 0.25634264946
          -0.38178220391 1 -0.71974277496 -0.19171303511 0.54087638855 -0.39616900682
          -0.51745331287 -0.40778687596 -0.040129587054 -0.28915959597 0.015770867467 -0.37993404269
          -0.63778078556 0.64167678356 0.12003681809 -0.33276838064 0.36995184422 -0.81937640905
          -0.94069284201 0.89228463173 0.23267711699 -1 0.97089082003 0.21615168452
          -1 -0.48688730597 -0.26798832417 -0.61804878712 -0.18592746556 0.13621020317
          -0.41806852818 0.47704043984 -1 -0.49097135663 1 -1
          -1 -0.57744985819 -0.11366268247 -0.82567048073 -0.53270703554 -0.099430248141
          1 -1 0.23921193182 0.15407399833 -0.41827809811 0.071367882192
          0.37193223834 0.43979230523 0.31540393829 0.37199312449 0.50801545382 -0.019120959565
          1 -0.56315892935 -0.15533338487 1 1 -0.034176427871
          0.18415443599 -0.4656509459 0.10143963993 0.81366640329 -0.5960996151 0.74957811832
          1 0.81531298161 -0.16715937853 1 1 -0.070237919688
          0.12452341616 -0.2436478734 0.044624131173 0.82382673025 -1 0.31367653608
          0.47803163528 0.61698758602 -0.044606871903 0.88050854206 1 -0.018356444314
          0.12628343701 -0.31686285138 0.044844750315 0.17628324032 -0.38715562224 0.033871367574
          0.39932665229 0.53113853931 0.2683339417 0.84125381708 0.98815768957 -0.0075272950344
          1 -1 0.53561890125 1 -0.75961071253 0.80267244577
          0.023289740086 0.50070798397 0.67713499069 0.10123053938 -0.25544992089 0.015597688034
          0.33472549915 0.50722527504 -0.076312631369 0.27200651169 0.42842781544 -0.12653152645
          -0.16725844145 0.62176311016 0.51660043001 -0.0221497491 0.39085400105 0.63877606392
          -0.63778078556 0.64167678356 0.12003681809 -0.47700873017 -0.37427449226 -0.019591268152
          0.37199312449 0.50801545382 -0.019120959565 0.14236785471 0.59581929445 0.63772875071
          -0.27838504314 -0.43043971062 0.07574159652 -0.40246626735 -0.19492536783 0.31790658832
          0.095282994211 -0.28606384993 0.040464684367 0.10585882515 -0.27840054035 0.036395810544
          -0.61804878712 -0.18592746556 0.13621020317 -0.26623472571 -0.0090648634359 -0.28307062387
          0.37193223834 0.43979230523 0.31540393829 0.12452341616 -0.2436478734 0.044624131173
          0.39932665229 0.53113853931 0.2683339417 0.32293498516 0.55648094416 0.44472879171
          -0.1834897846 0.46508419514 -0.40218156576 -0.19171303511 0.54087638855 -0.39616900682
          -0.19171303511 0.54087638855 -0.39616900682 0.27112340927 0.68103337288 0.69680267572
          -0.63778078556 0.64167678356 0.12003681809 0.37199312449 0.50801545382 -0.019120959565
          0.39932665229 0.53113853931 0.2683339417 0.14236785471 0.59581929445 0.63772875071
          -1 1 0.21879075468 0.32293498516 0.55648094416 0.44472879171
          -1 1 0.17813457549 0.42970812321 1 0.7889649272
          -0.38178220391 1 -0.71974277496 -0.16725844145 0.62176311016 0.51660043001
          -0.94069284201 0.89228463173 0.23267711699 -1 0.97089082003 0.21615168452
          0.47803163528 0.61698758602 -0.044606871903 0.33472549915 0.50722527504 -0.076312631369
          0.84125381708 0.98815768957 -0.0075272950344 0.84937465191 1 -0.0083480915055
          -1 0.88573783636 0.25634264946 -1 -0.04469871521 0.28330671787
          -0.63778078556 0.64167678356 0.12003681809 -0.37777593732 0.13855782151 1
          -0.0221497491 0.39085400105 0.63877606392 -0.16725844145 0.62176311016 0.51660043001
          -0.94069284201 0.89228463173 0.23267711699 -1 0.43907928467 1
          -0.20750921965 0.3366253674 1 -0.61804878712 -0.18592746556 0.13621020317
          0.023289740086 0.50070798397 0.67713499069 -0.024059016258 0.44888013601 0.77361655235
          -0.40246626735 -0.19492536783 0.31790658832 -0.41772454977 -0.15840967 0.43935894966
          -0.66412311792 0.057113107294 1 -1 0.14675167203 1
          0.82382673025 -1 0.31367653608 1 -0.73999410868 1
          -0.27056732774 -0.43258604407 0.21450315416 0.81366640329 -0.5960996151 0.74957811832
          -0.51906889677 -1 1 1 -1 1
          -0.44502443075 -0.79389387369 1 0.18415443599 -0.4656509459 0.10143963993
          0.13823078573 -0.3518114388 1 -0.0074988445267 -0.76279240847 0.023370742798
          0.20632849634 -0.35291647911 1 -0.26831459999 -0.44756564498 0.080217339098
          1 -0.75961071253 0.80267244577 0.79822725058 -0.5572193265 1
          1 -1 0.53561890125 -0.37955522537 -0.76704955101 0.018032388762
          0.13428154588 -0.4536831975 0.083951950073 0.14333324134 -0.45346850157 0.087201468647
          0.047786492854 -1 0.035664312541 -0.46381258965 -1 0.028040712699
          -0.47700873017 -0.37427449226 -0.019591268152 -0.51906889677 -1 1
          -1 0.14675167203 1 -0.40246626735 -0.19492536783 0.31790658832
          -1 -1 1 -1 -0.04469871521 0.28330671787
          -0.66412311792 0.057113107294 1 -0.41772454977 -0.15840967 0.43935894966
          -0.27056732774 -0.43258604407 0.21450315416 -0.44502443075 -0.79389387369 1
          -1 -0.57744985819 -0.11366268247 -0.61804878712 -0.18592746556 0.13621020317
          -0.26831459999 -0.44756564498 0.080217339098 -0.27838504314 -0.43043971062 0.07574159652
          -0.46381258965 -1 0.028040712699 -0.49655801058 -1 0.012903337367
          -0.51745331287 -0.40778687596 -0.040129587054 -1 -1 -0.048212263733
          -0.82567048073 -0.53270703554 -0.099430248141 -0.544018507 -0.5829474926 -0.057457026094
          -0.45745521784 -0.75884371996 -0.019703377038 -0.37955522537 -0.76704955101 0.018032388762
          -0.27056732774 -0.43258604407 0.21450315416 -0.37777593732 0.13855782151 1
          0.13823078573 -0.3518114388 1 -0.44502443075 -0.79389387369 1
          -0.41772454977 -0.15840967 0.43935894966 -0.66412311792 0.057113107294 1
          -0.40246626735 -0.19492536783 0.31790658832 0.095282994211 -0.28606384993 0.040464684367
          -0.0221497491 0.39085400105 0.63877606392 -0.024059016258 0.44888013601 0.77361655235
          -0.26831459999 -0.44756564498 0.080217339098 0.20632849634 -0.35291647911 1
          0.13823078573 -0.3518114388 1 -0.37777593732 0.13855782151 1
          -0.27056732774 -0.43258604407 0.21450315416 -0.41772454977 -0.15840967 0.43935894966
          -0.20750921965 0.3366253674 1 0.0030218146276 0.42971295118 1
          -0.27838504314 -0.43043971062 0.07574159652 0.13428154588 -0.4536831975 0.083951950073
          0.14004020393 -0.44303491712 0.081233434379 0.14333324134 -0.45346850157 0.087201468647
          -0.0221497491 0.39085400105 0.63877606392 0.14333324134 -0.45346850157 0.087201468647
          0.37193223834 0.43979230523 0.31540393829 0.20632849634 -0.35291647911 1
          0.27112340927 0.68103337288 0.69680267572 0.81366640329 -0.5960996151 0.74957811832
          0.14236785471 0.59581929445 0.63772875071 0.32293498516 0.55648094416 0.44472879171
          0.12452341616 -0.2436478734 0.044624131173 0.79822725058 -0.5572193265 1
          0.18415443599 -0.4656509459 0.10143963993 0.12628343701 -0.31686285138 0.044844750315
          0.0030218146276 0.42971295118 1 0.28908440471 0.64178925753 1
          0.023289740086 0.50070798397 0.67713499069 -0.024059016258 0.44888013601 0.77361655235
          0.15407399833 -0.41827809811 0.071367882192 0.14004020393 -0.44303491712 0.081233434379
          0.095282994211 -0.28606384993 0.040464684367 0.10585882515 -0.27840054035 0.036395810544
          0.79822725058 -0.5572193265 1 1 -0.75961071253 0.80267244577
          0.37193223834 0.43979230523 0.31540393829 1 1 -0.034176427871
          0.81366640329 -0.5960996151 0.74957811832 1 -0.73999410868 1
          0.32293498516 0.55648094416 0.44472879171 1 1 1
          0.84125381708 0.98815768957 -0.0075272950344 0.39932665229 0.53113853931 0.2683339417
          0.45484989882 1 1 0.42970812321 1 0.7889649272
          0.84937465191 1 -0.0083480915055 0.88050854206 1 -0.018356444314
          0.27112340927 0.68103337288 0.69680267572 0.28908440471 0.64178925753 1
          -0.94069284201 0.89228463173 0.23267711699 0.14236785471 0.59581929445 0.63772875071
          -1 1 0.21879075468 0.28908440471 0.64178925753 1
          -1 0.43907928467 1 -0.20750921965 0.3366253674 1
          -1 1 1 0.023289740086 0.50070798397 0.67713499069
          0.45484989882 1 1 -0.16725844145 0.62176311016 0.51660043001
          0.0030218146276 0.42971295118 1 -0.024059016258 0.44888013601 0.77361655235
          -1 0.88573783636 0.25634264946 -1 0.97089082003 0.21615168452
          0.27112340927 0.68103337288 0.69680267572 0.42970812321 1 0.7889649272
        </DataArray>
      </Points>
      <Cells>
        <DataArray type="Int64" Name="connectivity" format="ascii" RangeMin="0" RangeMax="339">
          0 1 2 3 4 5
          6 7 8 9 10 11
          12 13 14 15 16 17
          18 19 20 21 22 23
          24 25 26 27 28 29
          30 31 32 33 34 35
          36 37 38 39 40 41
          42 43 44 45 46 47
          48 49 50 51 52 53
          54 55 56 57 58 59
          60 61 62 63 64 65
          66 67 68 69 70 71
          72 73 74 75 76 77
          78 79 80 81 82 83
          84 85 86 87 88 89
          90 91 92 93 94 95
          96 97 98 99 100 101
          102 103 104 105 106 107
          108 109 110 111 112 113
          114 115 116 117 118 119
          120 121 122 123 124 125
          126 127 128 129 130 131
          132 133 134 135 136 137
          138 139 140 141 142 143
          144 145 146 147 148 149
          150 151 152 153 154 155
          156 157 158 159 160 161
          162 163 164 165 166 167
          168 169 170 171 172 173
          174 175 176 177 178 179
          180 181 182 183 184 185
          186 187 188 189 190 191
          192 193 194 195 196 197
          198 199 200 201 202 203
          204 205 206 207 208 209
          210 211 212 213 214 215
          216 217 218 219 220 221
          222 223 224 225 226 227
          228 229 230 231 232 233
          234 235 236 237 238 239
          240 241 242 243 244 245
          246 247 248 249 250 251
          252 253 254 255 256 257
          258 259 260 261 262 263
          264 265 266 267 268 269
          270 271 272 273 274 275
          276 277 278 279 280 281
          282 283 284 285 286 287
          288 289 290 291 292 293
          294 295 296 297 298 299
          300 301 302 303 304 305
          306 307 308 309 310 311
          312 313 314 315 316 317
          318 319 320 321 322 323
          324 325 326 327 328 329
          330 331 332 333 334 335
          336 337 338 339
        </DataArray>
        <DataArray type="Int64" Name="offsets" format="ascii" RangeMin="12" RangeMax="340">
          12 24 38 56 80 98
          110 126 148 168 190 208
          224 244 266 272 288 308
          324 340
        </DataArray>
        <DataArray type="UInt8" Name="types" format="ascii" RangeMin="42" RangeMax="42">
          42 42 42 42 42 42
          42 42 42 42 42 42
          42 42 42 42 42 42
          42 42
        </DataArray>
        <DataArray type="Int64" Name="faces" format="ascii" RangeMin="0" RangeMax="339">
          8 5 1 6 5 8
          3 4 1 0 11 6
          4 1 3 2 0 6
          2 3 8 7 10 9
          5 2 9 4 11 0
          6 4 10 7 5 6
          11 3 4 9 10 3
          5 7 8 8 4 13
          21 16 18 5 13 12
          22 23 21 5 13 18
          19 14 12 3 14 19
          15 5 14 15 17 22
          12 6 15 19 18 16
          20 17 4 16 21 23
          20 4 17 20 23 22
          9 3 25 33 32 7
          25 28 35 27 29 24
          33 6 25 32 37 30
          31 28 7 26 29 27
          34 31 30 36 3 26
          24 29 6 26 36 37
          32 33 24 3 27 35
          34 4 28 31 34 35
          3 30 37 36 11 3
          39 55 54 6 39 45
          49 41 43 55 6 39
          54 38 51 40 45 6
          40 50 44 52 49 45
          4 40 51 42 50 6
          41 49 52 53 46 47
          4 41 47 48 43 5
          42 46 53 44 50 6
          42 51 38 48 47 46
          5 43 48 38 54 55
          3 44 53 52 14 7
          57 61 70 68 72 74
          60 6 57 78 56 66
          67 61 4 57 60 79
          78 4 58 69 72 68
          6 58 62 59 64 65
          69 6 58 68 70 67
          66 62 8 59 56 78
          79 76 77 71 64 4
          59 62 66 56 5 60
          74 63 76 79 3 61
          67 70 5 63 73 75
          77 76 6 63 74 72
          69 65 73 5 64 71
          75 73 65 3 71 77
          75 11 6 81 83 91
          82 89 80 4 81 84
          85 83 5 81 80 86
          95 84 3 82 91 90
          8 82 90 87 88 94
          96 93 89 5 83 85
          87 90 91 6 84 95
          92 88 87 85 6 86
          93 96 97 92 95 4
          86 80 89 93 4 88
          92 97 94 3 94 97
          96 8 3 99 98 105
          5 99 106 107 103 98
          5 99 105 100 101 106
          4 100 109 102 101 6
          100 105 98 103 108 109
          5 101 102 104 107 106
          4 102 109 108 104 4
          103 107 104 108 10 5
          111 110 119 114 115 4
          111 113 112 110 4 111
          115 117 113 6 112 113
          117 118 124 116 5 112
          116 120 119 110 5 114
          119 120 122 123 7 114
          123 121 125 118 117 115
          6 116 124 125 121 122
          120 3 118 125 124 3
          121 123 122 13 6 127
          143 130 136 147 146 5
          127 133 140 138 143 8
          127 146 142 126 128 129
          141 133 4 128 126 144
          145 4 128 145 134 129
          6 129 134 135 138 140
          141 4 130 131 137 136
          6 130 143 138 135 132
          131 4 131 132 139 137
          6 132 135 134 145 144
          139 3 133 141 140 7
          136 137 139 144 126 142
          147 3 142 146 147 12
          3 149 163 162 6 149
          154 159 148 152 163 6
          149 162 158 150 155 154
          7 150 164 165 161 153
          167 155 4 150 158 151
          164 4 151 160 165 164
          7 151 158 162 163 152
          156 160 7 152 148 166
          167 153 157 156 3 153
          161 157 5 154 155 167
          166 159 5 156 157 161
          165 160 3 159 166 148
          13 6 169 183 175 178
          180 181 4 169 171 188
          183 6 169 181 185 176
          170 171 4 170 189 188
          171 8 170 176 186 187
          177 172 174 189 3 172
          177 168 6 172 168 173
          179 182 174 8 173 168
          177 187 184 185 181 180
          4 173 180 178 179 6
          174 182 175 183 188 189
          4 175 182 179 178 4
          176 185 184 186 3 184
          187 186 11 6 191 199
          207 206 194 197 7 191
          195 201 202 203 196 199
          3 191 197 195 6 192
          190 200 198 203 202 8
          192 201 195 197 194 193
          205 190 3 192 202 201
          4 193 194 206 204 3
          193 204 205 5 196 198
          200 207 199 3 196 203
          198 6 200 190 205 204
          206 207 10 6 209 223
          222 221 220 217 4 209
          208 215 223 5 209 217
          210 214 208 3 210 213
          214 6 210 217 220 212
          218 213 3 211 221 222
          6 211 216 219 212 220
          221 5 211 222 223 215
          216 3 212 219 218 7
          213 218 219 216 215 208
          214 12 4 225 237 227
          236 7 225 229 228 230
          232 234 237 4 225 236
          238 229 6 226 230 228
          243 239 235 3 226 232
          230 6 226 235 240 241
          234 232 5 227 231 224
          238 236 5 227 237 234
          241 231 6 228 229 238
          224 242 243 6 231 241
          240 233 242 224 4 233
          239 243 242 4 233 240
          235 239 13 6 245 253
          252 256 265 258 5 245
          248 246 250 253 5 245
          258 259 261 248 6 246
          249 255 247 251 250 5
          246 248 261 254 249 4
          247 255 244 257 5 247
          257 256 252 251 6 249
          254 262 260 244 255 4
          250 251 252 253 6 254
          261 259 264 263 262 7
          256 257 244 260 263 264
          265 4 258 265 264 259
          3 260 262 263 5 3
          267 271 270 4 267 268
          269 271 4 267 270 266
          268 3 268 266 269 4
          269 266 270 271 10 5
          273 284 276 285 286 4
          273 274 272 284 7 273
          286 287 277 283 275 274
          6 274 275 282 279 281
          272 3 275 283 282 6
          276 280 278 277 287 285
          5 276 284 272 281 280
          5 277 278 279 282 283
          4 278 280 281 279 3
          285 287 286 12 4 289
          298 304 305 5 289 291
          297 293 298 7 289 305
          306 288 303 300 291 6
          290 296 299 304 298 293
          8 290 295 294 302 288
          306 307 296 6 290 293
          297 301 292 295 4 291
          300 301 297 6 292 301
          300 303 302 294 3 292
          294 295 3 296 307 299
          5 299 307 306 305 304
          3 302 303 288 10 4
          309 312 308 313 7 309
          311 321 316 317 310 312
          4 309 313 315 311 3
          310 317 314 6 310 314
          322 323 308 312 6 311
          315 318 319 320 321 5
          313 308 323 318 315 6
          314 317 316 320 319 322
          3 316 321 320 4 318
          323 322 319 10 6 325
          331 335 334 327 338 3
          325 333 331 7 325 338
          339 326 337 324 333 5
          326 330 328 336 337 4
          326 339 332 330 4 327
          332 339 338 6 327 334
          329 328 330 332 7 328
          329 335 331 333 324 336
          3 329 334 335 3 336
          324 337
        </DataArray>
        <DataArray type="Int64" Name="faceoffsets" format="ascii" RangeMin="45" RangeMax="1250">
          45 90 142 208 295 361
          406 465 545 618 698 764
          823 896 976 1000 1059 1132
          1191 1250
        </DataArray>
      </Cells>
    </Piece>
  </UnstructuredGrid>
</VTKFile>
