<?xml version="1.0"?>
<VTKFile type="UnstructuredGrid" version="0.1" byte_order="LittleEndian" header_type="UInt32" compressor="vtkZLibDataCompressor">
  <UnstructuredGrid>
    <Piece NumberOfPoints="310" NumberOfCells="20">
      <PointData>
      </PointData>
      <CellData>
        <DataArray type="Int32" Name="cellID" format="ascii" RangeMin="0" RangeMax="19">
          0 1 2 3 4 5
          6 7 8 9 10 11
          12 13 14 15 16 17
          18 19
        </DataArray>
        <DataArray type="Float64" Name="cellVolume" format="ascii" RangeMin="0.13112259306" RangeMax="1.1208623409">
          0.3640552935 0.29655351729 0.55222685709 1.1208623409 0.16756604524 0.41212459823
          0.74642091539 0.3455146281 0.3163881301 0.87766610792 0.2320717997 0.18113309536
          0.32046487627 0.13112259306 0.40296933 0.33000236687 0.45902247143 0.27109090674
          0.21697130598 0.25577282087
        </DataArray>
        <DataArray type="Int32" Name="cellFaces" format="ascii" RangeMin="6" RangeMax="15">
          8 7 10 11 7 13
          10 12 10 12 11 8
          15 8 11 6 10 10
          7 9
        </DataArray>
        <DataArray type="Float64" Name="cellSurfaceArea" format="ascii" RangeMin="1.7867731656" RangeMax="6.8333133546">
          3.5727426357 2.949310084 3.9884175174 6.8333133546 1.962528649 3.2429031205
          5.1345457676 3.1046951851 2.9725280101 5.6589759496 2.6839538245 2.1391429652
          2.7741569627 1.7867731656 3.5982500241 3.2314589562 3.7103374601 2.9661551724
          2.2959751421 2.7614588853
        </DataArray>
      </CellData>
      <Points>
        <DataArray type="Float32" Name="Points" NumberOfComponents="3" format="ascii" RangeMin="0.1741882777" RangeMax="1.7320508076">
          0.15628671646 0.14810073376 -0.30866780877 0.31505820155 0.057325866073 -0.36962068081
          0.56589788198 0.43315032125 -0.61067825556 -0.064264506102 1 -1
          0.71786880493 -0.21360713243 -1 0.015055462718 -0.77747070789 -1
          0.19155290723 0.028936551884 -0.29460582137 0.8314037919 0.3486802876 -1
          0.24200697243 0.63531517982 -0.49107098579 -0.10874131322 1 -0.8840560317
          -0.29632395506 1 -1 -0.37775236368 0.89582341909 -1
          -0.064264506102 1 -1 1 0.33354786038 -1
          0.39070525765 1 -0.096925675869 1 1 -1
          1 0.40658101439 -0.53110724688 1 1 0.051362063736
          0.56589788198 0.43315032125 -0.61067825556 0.8314037919 0.3486802876 -1
          -0.10874131322 1 -0.8840560317 0.24200697243 0.63531517982 -0.49107098579
          1 -0.29891648889 -0.23230239749 1 -1 -1
          0.015055462718 -0.77747070789 -1 1 -0.36523115635 -1
          1 -1 -0.37593200803 0.026147758588 -0.709446311 -0.24835236371
          0.31505820155 0.057325866073 -0.36962068081 0.34719851613 -0.094846792519 -0.14487615228
          0.71786880493 -0.21360713243 -1 -0.034716878086 -1 -1
          0.19155290723 0.028936551884 -0.29460582137 0.69917619228 -0.13248537481 -0.1771838963
          0.1802982986 -0.019493628293 -0.21759019792 0.03040035069 -0.69034451246 -0.24473619461
          -0.037887904793 -1 -0.4218288064 0.020469699055 -1 -0.30748072267
          -1 -1 -1 -1 1 -0.96673858166
          -1 1 -1 -0.37775236368 0.89582341909 -1
          -1 -1 -0.77111160755 -0.037887904793 -1 -0.4218288064
          -1 0.23646850884 -0.13180267811 -0.85937774181 1 -1
          0.015055462718 -0.77747070789 -1 -0.034716878086 -1 -1
          0.19155290723 0.028936551884 -0.29460582137 0.15628671646 0.14810073376 -0.30866780877
          -0.15526208282 -0.078003995121 0.012272671796 0.14964784682 0.035868603736 -0.18436959386
          0.026147758588 -0.709446311 -0.24835236371 0.1802982986 -0.019493628293 -0.21759019792
          0.03040035069 -0.69034451246 -0.24473619461 0.026374544948 -0.70125317574 -0.24403381348
          0.71786880493 -0.21360713243 -1 1 -0.36523115635 -1
          0.8314037919 0.3486802876 -1 1 0.33354786038 -1
          0.31505820155 0.057325866073 -0.36962068081 1 -0.14258293808 -0.12814374268
          0.56589788198 0.43315032125 -0.61067825556 1 0.40658101439 -0.53110724688
          0.69917619228 -0.13248537481 -0.1771838963 1 -0.29891648889 -0.23230239749
          0.24200697243 0.63531517982 -0.49107098579 0.56589788198 0.43315032125 -0.61067825556
          0.1802982986 -0.019493628293 -0.21759019792 0.69917619228 -0.13248537481 -0.1771838963
          1 -0.14258293808 -0.12814374268 1 -0.11900529265 -0.046258248389
          1 0.40658101439 -0.53110724688 1 1 0.21414110065
          0.75517326593 -0.072597429156 0.046464268118 0.40243697166 1 -0.023279571906
          0.59701758623 1 0.3489857614 0.53647708893 -0.0036925112363 0.13567824662
          0.53571939468 -0.041733447462 0.092296876013 0.31505820155 0.057325866073 -0.36962068081
          0.39070525765 1 -0.096925675869 1 1 0.051362063736
          0.14964784682 0.035868603736 -0.18436959386 0.34719851613 -0.094846792519 -0.14487615228
          0.27407303452 0.2911555469 0.21918305755 0.31565269828 0.31346216798 0.28337362409
          0.15628671646 0.14810073376 -0.30866780877 0.19155290723 0.028936551884 -0.29460582137
          -1 -1 -0.77111160755 -1 0.26087579131 0.13724534214
          -1 -1 0.72231143713 -0.2514539957 -0.2559094727 0.44878298044
          -0.25746110082 -0.01010506507 0.32392045856 -0.063193693757 -1 0.11008767039
          0.020832721144 -1 -0.048062693328 0.02650283277 -1 -0.067583799362
          -0.15526208282 -0.078003995121 0.012272671796 -1 0.23646850884 -0.13180267811
          -0.25571084023 -0.27300223708 0.45715427399 -1 -0.9341609478 0.74234867096
          0.026374544948 -0.70125317574 -0.24403381348 -0.037887904793 -1 -0.4218288064
          0.020469699055 -1 -0.30748072267 0.026147758588 -0.709446311 -0.24835236371
          1 -1 0.50405794382 0.89072501659 -1 0.53563523293
          0.53571939468 -0.041733447462 0.092296876013 1 -0.29891648889 -0.23230239749
          1 -1 -0.37593200803 0.13121202588 -1 0.03903119266
          0.020469699055 -1 -0.30748072267 0.34719851613 -0.094846792519 -0.14487615228
          0.69917619228 -0.13248537481 -0.1771838963 0.53267717361 -0.29821100831 0.23929134011
          0.043516121805 -1 -0.043351698667 0.12348994613 -0.9270491004 0.027512717992
          0.75517326593 -0.072597429156 0.046464268118 1 -0.14132077992 0.014868114144
          1 -0.11900529265 -0.046258248389 1 -0.14258293808 -0.12814374268
          0.02650283277 -1 -0.067583799362 0.03040035069 -0.69034451246 -0.24473619461
          0.026147758588 -0.709446311 -0.24835236371 0.026374544948 -0.70125317574 -0.24403381348
          0.53647708893 -0.0036925112363 0.13567824662 1 -0.14132077992 0.014868114144
          0.31565269828 0.31346216798 0.28337362409 1 1 0.21414110065
          1 0.65593296289 1 1 -0.06992226094 0.59420865774
          0.59701758623 1 0.3489857614 1 1 1
          0.75517326593 -0.072597429156 0.046464268118 1 -0.11900529265 -0.046258248389
          0.53874325752 0.03886596486 0.48587447405 0.79136556387 0.79279065132 1
          0.33445420861 0.32559555769 0.5712543726 0.9284299612 1 1
          0.59820342064 1 0.37357202172 0.39163461328 0.45556053519 0.66488087177
          -1 1 -0.96673858166 0.14964784682 0.035868603736 -0.18436959386
          -0.85937774181 1 -1 0.15628671646 0.14810073376 -0.30866780877
          -1 0.23646850884 -0.13180267811 -0.25746110082 -0.01010506507 0.32392045856
          -1 1 0.053873278201 0.40243697166 1 -0.023279571906
          -1 0.49357417226 0.32729402184 -0.76863414049 1 0.13517288864
          0.27407303452 0.2911555469 0.21918305755 -1 0.26087579131 0.13724534214
          -0.15526208282 -0.078003995121 0.012272671796 -0.37775236368 0.89582341909 -1
          -0.29632395506 1 -1 0.39070525765 1 -0.096925675869
          -0.23142778873 0.027338288724 0.3713555634 -1 0.482937783 0.33067160845
          0.24200697243 0.63531517982 -0.49107098579 -0.10874131322 1 -0.8840560317
          -0.2514539957 -0.2559094727 0.44878298044 -0.063193693757 -1 0.11008767039
          0.043516121805 -1 -0.043351698667 0.40158614516 -0.13359472156 0.67537748814
          0.46612972021 -1 1 0.58126062155 -1 1
          -0.25571084023 -0.27300223708 0.45715427399 0.57077479362 -0.67136591673 1
          0.12348994613 -0.9270491004 0.027512717992 0.13121202588 -1 0.03903119266
          0.031154831871 0.14258886874 1 -0.00052950478857 0.13372983038 1
          -0.06114770472 -0.03916304931 1 0.020832721144 -1 -0.048062693328
          0.085164509714 0.19085374475 0.85096049309 0.066019006073 0.18701985478 0.84413295984
          -0.018911749125 0.15710890293 0.87183457613 -0.050220865756 0.12552590668 0.77425736189
          0.12348994613 -0.9270491004 0.027512717992 1 -1 0.89891326427
          0.53267717361 -0.29821100831 0.23929134011 1 -1 0.95637977123
          0.58126062155 -1 1 0.53720664978 -0.081202402711 0.5307828784
          0.94126844406 -1 1 1 -0.9727794528 0.93358778954
          0.89072501659 -1 0.53563523293 0.13121202588 -1 0.03903119266
          0.40158614516 -0.13359472156 0.67537748814 0.57077479362 -0.67136591673 1
          -0.15526208282 -0.078003995121 0.012272671796 0.043516121805 -1 -0.043351698667
          -0.25746110082 -0.01010506507 0.32392045856 -0.2514539957 -0.2559094727 0.44878298044
          0.02650283277 -1 -0.067583799362 0.020832721144 -1 -0.048062693328
          0.53874325752 0.03886596486 0.48587447405 0.14964784682 0.035868603736 -0.18436959386
          -0.050220865756 0.12552590668 0.77425736189 0.33445420861 0.32559555769 0.5712543726
          -0.23142778873 0.027338288724 0.3713555634 0.40158614516 -0.13359472156 0.67537748814
          0.10263874382 0.2061009407 0.82925277948 0.34719851613 -0.094846792519 -0.14487615228
          0.53267717361 -0.29821100831 0.23929134011 0.12348994613 -0.9270491004 0.027512717992
          0.53720664978 -0.081202402711 0.5307828784 0.026374544948 -0.70125317574 -0.24403381348
          0.53647708893 -0.0036925112363 0.13567824662 0.53571939468 -0.041733447462 0.092296876013
          0.27407303452 0.2911555469 0.21918305755 0.31565269828 0.31346216798 0.28337362409
          0.1802982986 -0.019493628293 -0.21759019792 0.03040035069 -0.69034451246 -0.24473619461
          0.066019006073 0.18701985478 0.84413295984 0.085164509714 0.19085374475 0.85096049309
          1 -1 0.89891326427 1 -1 0.50405794382
          0.53267717361 -0.29821100831 0.23929134011 1 -0.14132077992 0.014868114144
          0.89072501659 -1 0.53563523293 1 -0.9727794528 0.93358778954
          0.53571939468 -0.041733447462 0.092296876013 1 -0.06992226094 0.59420865774
          0.53720664978 -0.081202402711 0.5307828784 0.53874325752 0.03886596486 0.48587447405
          0.53647708893 -0.0036925112363 0.13567824662 0.75517326593 -0.072597429156 0.046464268118
          0.066019006073 0.18701985478 0.84413295984 0.27407303452 0.2911555469 0.21918305755
          -1 0.49357417226 0.32729402184 0.40243697166 1 -0.023279571906
          -1 0.48454651237 0.33374899626 0.31565269828 0.31346216798 0.28337362409
          -0.23142778873 0.027338288724 0.3713555634 -0.25872904062 1 0.50979965925
          0.33445420861 0.32559555769 0.5712543726 -0.76863414049 1 0.13517288864
          -1 0.482937783 0.33067160845 -0.018911749125 0.15710890293 0.87183457613
          -0.050220865756 0.12552590668 0.77425736189 -0.42396578193 0.3854264915 0.8278337121
          0.59701758623 1 0.3489857614 0.59820342064 1 0.37357202172
          0.39163461328 0.45556053519 0.66488087177 0.10263874382 0.2061009407 0.82925277948
          -0.063193693757 -1 0.11008767039 -0.25571084023 -0.27300223708 0.45715427399
          -1 -0.9341609478 0.74234867096 -1 -1 0.72231143713
          -1 -1 1 -0.06114770472 -0.03916304931 1
          -1 -0.90870159864 1 0.46612972021 -1 1
          -1 -0.9341609478 0.74234867096 -0.23142778873 0.027338288724 0.3713555634
          -1 0.482937783 0.33067160845 -0.050220865756 0.12552590668 0.77425736189
          -0.00052950478857 0.13372983038 1 -1 -0.90870159864 1
          -0.06114770472 -0.03916304931 1 -0.44938984513 0.38170903921 1
          -1 0.48454651237 0.33374899626 -1 0.45675158501 1
          -0.25571084023 -0.27300223708 0.45715427399 -0.2514539957 -0.2559094727 0.44878298044
          -0.018911749125 0.15710890293 0.87183457613 -0.42396578193 0.3854264915 0.8278337121
          -0.25746110082 -0.01010506507 0.32392045856 -1 0.26087579131 0.13724534214
          0.79136556387 0.79279065132 1 0.94126844406 -1 1
          0.53720664978 -0.081202402711 0.5307828784 0.53874325752 0.03886596486 0.48587447405
          0.085164509714 0.19085374475 0.85096049309 1 -1 1
          0.39163461328 0.45556053519 0.66488087177 1 -0.06992226094 0.59420865774
          1 -0.9727794528 0.93358778954 1 -1 0.95637977123
          0.40158614516 -0.13359472156 0.67537748814 0.57077479362 -0.67136591673 1
          0.33445420861 0.32559555769 0.5712543726 1 0.65593296289 1
          0.10263874382 0.2061009407 0.82925277948 0.031154831871 0.14258886874 1
          -1 0.45675158501 1 -0.25872904062 1 0.50979965925
          -1 0.48454651237 0.33374899626 -1 1 0.053873278201
          -0.32905778289 1 1 -1 1 1
          -0.76863414049 1 0.13517288864 -1 0.49357417226 0.32729402184
          -0.42396578193 0.3854264915 0.8278337121 -0.44938984513 0.38170903921 1
          -0.018911749125 0.15710890293 0.87183457613 -0.25872904062 1 0.50979965925
          -0.32905778289 1 1 0.9284299612 1 1
          0.066019006073 0.18701985478 0.84413295984 0.59820342064 1 0.37357202172
          -0.44938984513 0.38170903921 1 -0.42396578193 0.3854264915 0.8278337121
          0.085164509714 0.19085374475 0.85096049309 0.79136556387 0.79279065132 1
          0.10263874382 0.2061009407 0.82925277948 0.39163461328 0.45556053519 0.66488087177
          0.031154831871 0.14258886874 1 -0.00052950478857 0.13372983038 1
        </DataArray>
      </Points>
      <Cells>
        <DataArray type="Int64" Name="connectivity" format="ascii" RangeMin="0" RangeMax="309">
          0 1 2 3 4 5
          6 7 8 9 10 11
          12 13 14 15 16 17
          18 19 20 21 22 23
          24 25 26 27 28 29
          30 31 32 33 34 35
          36 37 38 39 40 41
          42 43 44 45 46 47
          48 49 50 51 52 53
          54 55 56 57 58 59
          60 61 62 63 64 65
          66 67 68 69 70 71
          72 73 74 75 76 77
          78 79 80 81 82 83
          84 85 86 87 88 89
          90 91 92 93 94 95
          96 97 98 99 100 101
          102 103 104 105 106 107
          108 109 110 111 112 113
          114 115 116 117 118 119
          120 121 122 123 124 125
          126 127 128 129 130 131
          132 133 134 135 136 137
          138 139 140 141 142 143
          144 145 146 147 148 149
          150 151 152 153 154 155
          156 157 158 159 160 161
          162 163 164 165 166 167
          168 169 170 171 172 173
          174 175 176 177 178 179
          180 181 182 183 184 185
          186 187 188 189 190 191
          192 193 194 195 196 197
          198 199 200 201 202 203
          204 205 206 207 208 209
          210 211 212 213 214 215
          216 217 218 219 220 221
          222 223 224 225 226 227
          228 229 230 231 232 233
          234 235 236 237 238 239
          240 241 242 243 244 245
          246 247 248 249 250 251
          252 253 254 255 256 257
          258 259 260 261 262 263
          264 265 266 267 268 269
          270 271 272 273 274 275
          276 277 278 279 280 281
          282 283 284 285 286 287
          288 289 290 291 292 293
          294 295 296 297 298 299
          300 301 302 303 304 305
          306 307 308 309
        </DataArray>
        <DataArray type="Int64" Name="offsets" format="ascii" RangeMin="12" RangeMax="310">
          12 22 38 56 66 88
          104 124 140 160 178 190
          216 228 246 254 270 286
          296 310
        </DataArray>
        <DataArray type="UInt8" Name="types" format="ascii" RangeMin="42" RangeMax="42">
          42 42 42 42 42 42
          42 42 42 42 42 42
          42 42 42 42 42 42
          42 42
        </DataArray>
        <DataArray type="Int64" Name="faces" format="ascii" RangeMin="0" RangeMax="309">
          8 5 1 6 0 8
          2 4 1 4 5 6
          4 1 2 7 4 5
          2 8 9 3 7 6
          3 10 11 5 4 7
          3 3 9 10 4 5
          11 0 6 5 8 0
          11 10 9 7 4 13
          19 18 16 4 13 15
          12 19 4 13 16 17
          15 3 14 21 20 5
          14 17 16 18 21 5
          14 20 12 15 17 5
          18 19 12 20 21 10
          5 23 25 30 24 31
          4 23 26 22 25 5
          23 31 36 37 26 7
          24 32 34 35 27 36
          31 4 24 30 28 32
          5 25 22 33 28 30
          7 26 37 27 35 29
          33 22 3 27 37 36
          5 28 33 29 34 32
          3 29 35 34 11 7
          39 45 41 49 51 50
          44 3 39 40 45 5
          39 44 42 38 40 6
          40 38 47 46 41 45
          4 41 46 48 49 6
          42 44 50 55 52 43
          4 42 43 47 38 7
          43 52 54 53 48 46
          47 4 48 53 51 49
          5 50 51 53 54 55
          3 52 55 54 7 5
          57 56 60 64 65 4
          57 59 58 56 5 57
          65 61 63 59 4 58
          59 63 62 4 58 62
          60 56 5 60 62 63
          61 64 3 61 65 64
          13 5 67 72 81 80
          66 5 67 79 69 70
          72 5 67 66 86 87
          79 4 68 87 86 82
          5 68 83 69 79 87
          7 68 82 84 85 77
          78 83 6 69 83 78
          74 71 70 5 70 71
          73 81 72 6 71 74
          77 85 76 73 5 73
          76 75 80 81 3 74
          78 77 4 75 76 85
          84 6 75 84 82 86
          66 80 10 4 89 97
          96 92 5 89 99 90
          88 97 5 89 92 91
          98 99 4 90 99 98
          93 7 90 93 94 95
          102 101 88 6 91 92
          96 100 95 94 4 91
          94 93 98 4 95 100
          103 102 6 96 97 88
          101 103 100 3 101 102
          103 12 6 105 113 106
          116 117 104 4 105 109
          115 113 7 105 104 108
          110 120 114 109 6 106
          111 112 119 118 116 8
          106 113 115 114 120 123
          121 111 3 107 119 112
          6 107 108 104 117 118
          119 7 107 112 111 121
          122 110 108 3 109 114
          115 4 110 122 123 120
          3 116 118 117 3 121
          123 122 10 3 125 133
          132 6 125 129 128 131
          127 133 5 125 132 124
          134 129 5 126 130 138
          139 136 6 126 124 132
          133 127 130 4 126 136
          134 124 5 127 131 137
          138 130 6 128 129 134
          136 139 135 4 128 135
          137 131 4 135 139 138
          137 12 6 141 150 147
          155 158 143 5 141 152
          145 156 150 7 141 143
          153 142 140 144 152 8
          142 154 159 155 147 149
          146 140 3 142 153 154
          5 143 158 159 154 153
          4 144 151 145 152 6
          144 140 146 148 157 151
          4 145 151 157 156 3
          146 149 148 6 147 150
          156 157 148 149 3 155
          159 158 11 4 161 173
          160 166 6 161 164 165
          169 162 173 4 161 166
          172 164 3 162 169 168
          8 162 168 163 174 175
          177 160 173 4 163 167
          170 174 5 163 168 169
          165 167 6 164 172 171
          170 167 165 6 166 160
          177 176 171 172 5 170
          171 176 175 174 3 175
          176 177 8 5 179 185
          183 180 186 3 179 181
          185 6 179 186 187 182
          184 181 4 180 178 187
          186 4 180 183 188 178
          6 181 184 189 188 183
          185 5 182 187 178 188
          189 3 182 189 184 15
          8 191 205 204 209 203
          213 207 194 8 191 195
          193 198 214 215 201 205
          3 191 194 195 4 192
          200 198 193 5 192 190
          197 210 200 6 192 193
          195 194 207 190 4 196
          199 211 208 6 196 206
          201 215 202 199 5 196
          208 209 204 206 5 197
          190 207 213 212 7 197
          212 203 209 208 211 210
          7 198 200 210 211 199
          202 214 4 201 206 204
          205 3 202 215 214 3
          203 212 213 8 6 217
          219 227 222 218 220 5
          217 216 221 223 219 3
          217 220 216 5 218 222
          226 225 224 5 218 224
          221 216 220 5 219 223
          225 226 227 4 221 224
          225 223 3 222 227 226
          11 4 229 233 242 231
          7 229 234 240 228 245
          236 233 6 229 231 237
          230 238 234 5 230 237
          235 241 232 3 230 232
          238 5 231 242 243 235
          237 6 232 241 239 240
          234 238 5 233 236 244
          243 242 7 235 243 244
          245 228 239 241 3 236
          245 244 3 239 228 240
          6 4 247 251 252 248
          4 247 246 253 251 4
          247 248 249 246 4 248
          252 250 249 4 249 250
          253 246 4 250 252 251
          253 10 4 255 256 269
          268 6 255 257 266 267
          262 256 4 255 268 265
          257 6 256 262 263 259
          254 269 6 257 265 264
          260 258 266 4 258 261
          267 266 5 258 260 259
          263 261 4 259 260 264
          254 4 261 263 262 267
          5 264 265 268 269 254
          10 6 271 279 278 272
          280 281 3 271 275 279
          6 271 281 285 270 283
          275 6 272 273 282 284
          274 280 4 272 278 277
          273 6 273 277 283 270
          276 282 5 274 284 276
          270 285 4 274 285 281
          280 5 275 283 277 278
          279 3 276 284 282 7
          5 287 292 293 288 294
          5 287 290 291 289 292
          4 287 294 295 290 4
          288 286 295 294 5 288
          293 289 291 286 3 289
          293 292 4 290 295 286
          291 9 7 297 303 296
          300 306 307 301 4 297
          298 302 303 4 297 301
          299 298 6 298 299 305
          308 309 302 4 299 301
          307 305 5 300 296 309
          308 304 3 300 304 306
          4 302 309 296 303 5
          304 308 305 307 306
        </DataArray>
        <DataArray type="Int64" Name="faceoffsets" format="ascii" RangeMin="45" RangeMax="1145">
          45 83 142 208 246 326
          385 458 517 590 656 701
          795 840 906 937 996 1055
          1093 1145
        </DataArray>
      </Cells>
    </Piece>
  </UnstructuredGrid>
</VTKFile>
