<?xml version="1.0"?>
<VTKFile type="UnstructuredGrid" version="0.1" byte_order="LittleEndian" header_type="UInt32" compressor="vtkZLibDataCompressor">
  <UnstructuredGrid>
    <Piece NumberOfPoints="290" NumberOfCells="20">
      <PointData>
      </PointData>
      <CellData>
        <DataArray type="Int32" Name="cellID" format="ascii" RangeMin="0" RangeMax="19">
          0 1 2 3 4 5
          6 7 8 9 10 11
          12 13 14 15 16 17
          18 19
        </DataArray>
        <DataArray type="Float64" Name="cellVolume" format="ascii" RangeMin="0.050930606008" RangeMax="0.86163975285">
          0.74026232677 0.050930606008 0.86163975285 0.15345143141 0.34729190076 0.14171673724
          0.1135119423 0.15638433475 0.52484761423 0.46082668492 0.67414812732 0.45604437921
          0.22467602037 0.41615541533 0.51766924038 0.7034160305 0.22974944844 0.48217775281
          0.33878515984 0.40631509455
        </DataArray>
        <DataArray type="Int32" Name="cellFaces" format="ascii" RangeMin="5" RangeMax="14">
          11 7 10 8 12 7
          5 9 10 7 14 11
          10 11 8 9 7 10
          9 10
        </DataArray>
        <DataArray type="Float64" Name="cellSurfaceArea" format="ascii" RangeMin="1.2329964897" RangeMax="5.526471952">
          4.7290813259 1.2329964897 5.526471952 2.0417666313 3.0287291138 1.7260665224
          1.7551820505 2.0835181759 3.844200352 4.0575210837 4.4792965889 3.4085162412
          2.4713012378 3.3228437517 4.3246434878 4.7180587137 2.4311530731 3.9776775204
          3.1583092086 3.514374089
        </DataArray>
      </CellData>
      <Points>
        <DataArray type="Float32" Name="Points" NumberOfComponents="3" format="ascii" RangeMin="0.3645030202" RangeMax="1.7320508076">
          -1 -1 -1 0.046046100557 -0.01784170419 -1
          -0.86660021544 0.25745296478 -0.37900197506 -0.70055347681 -0.072476632893 -1
          -1 -0.083741001785 -0.1126916036 -1 -1 -0.47121834755
          -1 0.11155731231 -0.22982595861 -0.34820136428 -0.40313032269 -0.15137319267
          -1 -0.79346138239 -1 -0.055377889425 -1 -0.34615701437
          -0.87754786015 0.25468569994 -0.35892540216 -0.059015341103 -0.11639201641 -0.42550307512
          0.056353773922 0.0268561095 -0.92022687197 0.079206526279 -0.14075477421 -0.53180193901
          0.033280938864 -1 -0.36361783743 -0.023645844311 -1 -1
          0.024111054838 -1 -0.3563182056 -0.055472861975 -0.90228527784 -0.30793440342
          -0.70055347681 -0.072476632893 -1 -1 0.37109407783 -0.36309865117
          -1 0.17142541707 -1 -1 -0.79346138239 -1
          -1 0.32338997722 -0.31243422627 -0.86660021544 0.25745296478 -0.37900197506
          -0.98604160547 0.36221200228 -0.35516503453 -1 0.11155731231 -0.22982595861
          -0.87754786015 0.25468569994 -0.35892540216 -0.97933888435 0.33848518133 -0.33068591356
          0.033280938864 -1 -0.36361783743 1 -1 -1
          0.31565636396 0.13210463524 -0.45309513807 1 0.37335348129 -1
          0.70215266943 -0.1335721612 -0.16248959303 1 -1 -0.086933292449
          0.18728914857 0.24078977108 -1 0.61137026548 0.13897453249 -0.2785692215
          0.079206526279 -0.14075477421 -0.53180193901 0.4314673245 -1 -0.1265091002
          0.046046100557 -0.01784170419 -1 -0.023645844311 -1 -1
          1 -0.22023181617 -0.13627293706 1 0.21381640434 -0.32688432932
          0.056353773922 0.0268561095 -0.92022687197 0.091498240829 0.11400644481 -1
          0.091498240829 0.11400644481 -1 -0.4403847158 0.75262004137 -1
          -1 0.70579868555 -1 -1 0.38109433651 -0.36981573701
          -0.86660021544 0.25745296478 -0.37900197506 -1 0.17142541707 -1
          -0.70055347681 -0.072476632893 -1 -1 0.37109407783 -0.36309865117
          -0.98604160547 0.36221200228 -0.35516503453 -0.98484838009 0.38135004044 -0.36785170436
          0.056353773922 0.0268561095 -0.92022687197 0.046046100557 -0.01784170419 -1
          -0.4403847158 0.75262004137 -1 -0.98484838009 0.38135004044 -0.36785170436
          -0.57517552376 0.81485903263 -0.24599462748 0.079206526279 -0.14075477421 -0.53180193901
          -0.98604160547 0.36221200228 -0.35516503453 0.31565636396 0.13210463524 -0.45309513807
          -0.26906135678 0.64490348101 -0.055330667645 -0.059015341103 -0.11639201641 -0.42550307512
          0.11108075827 0.48693111539 -1 0.27119389176 0.37034222484 -0.28392103314
          -0.42377829552 0.76891827583 -1 -0.43533793092 0.73168808222 -0.03576079756
          0.28776410222 0.31809088588 -0.28165435791 0.10034256428 0.30144861341 -0.17866884172
          -0.97933888435 0.33848518133 -0.33068591356 0.18728914857 0.24078977108 -1
          -0.86660021544 0.25745296478 -0.37900197506 -0.87754786015 0.25468569994 -0.35892540216
          0.056353773922 0.0268561095 -0.92022687197 0.091498240829 0.11400644481 -1
          -1 1 -0.27006825805 -0.33861923218 1 -1
          -1 1 -1 -0.42377829552 0.76891827583 -1
          -0.98484838009 0.38135004044 -0.36785170436 -0.5153042078 1 -0.20855796337
          -0.57517552376 0.81485903263 -0.24599462748 -0.4403847158 0.75262004137 -1
          -1 0.38109433651 -0.36981573701 -1 0.70579868555 -1
          -0.16752281785 1 -1 0.46042174101 1 -0.043735362589
          -0.26611152291 1 0.00017896167992 0.16253761947 1 -1
          0.27052235603 0.41473791003 -0.27662494779 0.10073246062 0.69176411629 -1
          -0.16752281785 1 -1 -0.26611152291 1 0.00017896167992
          -0.43533793092 0.73168808222 -0.03576079756 0.11108075827 0.48693111539 -1
          0.27119389176 0.37034222484 -0.28392103314 -0.57517552376 0.81485903263 -0.24599462748
          -0.33861923218 1 -1 -0.42377829552 0.76891827583 -1
          0.10073246062 0.69176411629 -1 0.27052235603 0.41473791003 -0.27662494779
          -0.39927312732 0.75762754679 0.0071730492637 -0.26906135678 0.64490348101 -0.055330667645
          -0.34275776148 1 0.02640933916 -0.5153042078 1 -0.20855796337
          0.27052235603 0.41473791003 -0.27662494779 1 0.37335348129 -1
          0.16253761947 1 -1 1 1 -1
          0.11108075827 0.48693111539 -1 0.61137026548 0.13897453249 -0.2785692215
          0.46042174101 1 -0.043735362589 0.48658162355 0.34701040387 -0.13984940946
          0.10073246062 0.69176411629 -1 0.18728914857 0.24078977108 -1
          1 0.21381640434 -0.32688432932 0.27119389176 0.37034222484 -0.28392103314
          0.28776410222 0.31809088588 -0.28165435791 0.31565636396 0.13210463524 -0.45309513807
          1 1 0.090504638851 0.74092501402 1 0.14920140803
          -1 -1 -0.47121834755 -1 0.1314406395 0.57702219486
          -0.4373691082 -0.19124598801 0.39301508665 -0.055377889425 -1 -0.34615701437
          -1 -1 0.70489752293 -1 -0.24768172204 0.99836486578
          -1 -0.083741001785 -0.1126916036 -0.43682730198 -0.19208548963 0.39342555404
          -0.055472861975 -0.90228527784 -0.30793440342 -0.34820136428 -0.40313032269 -0.15137319267
          -0.16692368686 0.30065023899 0.47927618027 0.1617154628 -0.29268714786 0.75481253862
          0.10034256428 0.30144861341 -0.17866884172 0.70215266943 -0.1335721612 -0.16248959303
          0.31565636396 0.13210463524 -0.45309513807 0.4314673245 -1 -0.1265091002
          0.093915216625 0.31169745326 0.64785081148 0.033280938864 -1 -0.36361783743
          0.67763590813 -0.10998250544 -0.10429394245 -0.18246470392 0.2822510004 0.48942965269
          0.61137026548 0.13897453249 -0.2785692215 -0.055472861975 -0.90228527784 -0.30793440342
          0.41745722294 0.3515124321 0.13524900377 0.10312362015 0.33780544996 0.62452340126
          0.10490769148 -0.50614273548 0.74534320831 0.024111054838 -1 -0.3563182056
          0.28776410222 0.31809088588 -0.28165435791 0.48658162355 0.34701040387 -0.13984940946
          -0.43682730198 -0.19208548963 0.39342555404 -0.4373691082 -0.19124598801 0.39301508665
          -0.34820136428 -0.40313032269 -0.15137319267 0.29565253854 -1 0.12553678453
          -0.059015341103 -0.11639201641 -0.42550307512 0.079206526279 -0.14075477421 -0.53180193901
          -1 0.32338997722 -0.31243422627 -1 0.26217314601 0.61494928598
          -0.87754786015 0.25468569994 -0.35892540216 0.10034256428 0.30144861341 -0.17866884172
          -1 0.1314406395 0.57702219486 -1 -0.083741001785 -0.1126916036
          -0.059015341103 -0.11639201641 -0.42550307512 -0.48266834021 0.69520002604 0.35432034731
          -1 0.11155731231 -0.22982595861 -0.97933888435 0.33848518133 -0.33068591356
          -1 0.31844192743 0.59069180489 -0.39927312732 0.75762754679 0.0071730492637
          -0.26906135678 0.64490348101 -0.055330667645 -0.43533793092 0.73168808222 -0.03576079756
          -0.18246470392 0.2822510004 0.48942965269 -0.16692368686 0.30065023899 0.47927618027
          -0.34820136428 -0.40313032269 -0.15137319267 -0.4373691082 -0.19124598801 0.39301508665
          -0.5153042078 1 -0.20855796337 -0.98484838009 0.38135004044 -0.36785170436
          -1 1 -0.27006825805 -0.34275776148 1 0.02640933916
          -0.39927312732 0.75762754679 0.0071730492637 -1 0.38109433651 -0.36981573701
          -1 1 0.83624583483 -0.41944560409 1 0.41865924001
          -1 0.31844192743 0.59069180489 -0.48266834021 0.69520002604 0.35432034731
          -0.57517552376 0.81485903263 -0.24599462748 -0.43533793092 0.73168808222 -0.03576079756
          -1 0.32338997722 -0.31243422627 -1 0.37109407783 -0.36309865117
          -0.98604160547 0.36221200228 -0.35516503453 -0.97933888435 0.33848518133 -0.33068591356
          -0.26611152291 1 0.00017896167992 -0.48266834021 0.69520002604 0.35432034731
          -0.41944560409 1 0.41865924001 0.74092501402 1 0.14920140803
          0.27119389176 0.37034222484 -0.28392103314 0.41089093685 0.69184792042 0.82199037075
          -0.16692368686 0.30065023899 0.47927618027 0.54050725698 1 0.92144721746
          0.41745722294 0.3515124321 0.13524900377 0.27052235603 0.41473791003 -0.27662494779
          0.46042174101 1 -0.043735362589 -0.26906135678 0.64490348101 -0.055330667645
          0.10034256428 0.30144861341 -0.17866884172 0.10312362015 0.33780544996 0.62452340126
          -0.34275776148 1 0.02640933916 -0.39927312732 0.75762754679 0.0071730492637
          0.48658162355 0.34701040387 -0.13984940946 0.28776410222 0.31809088588 -0.28165435791
          -1 -0.24768172204 0.99836486578 0.29565253854 -1 0.12553678453
          -1 -0.2483252883 1 -0.055472861975 -0.90228527784 -0.30793440342
          -1 -1 1 0.32651054859 -1 1
          -1 -1 0.70489752293 -0.43682730198 -0.19208548963 0.39342555404
          0.10490769148 -0.50614273548 0.74534320831 0.16549728811 -0.6260047555 1
          0.024111054838 -1 -0.3563182056 -0.055377889425 -1 -0.34615701437
          0.2690294385 -0.21245785058 1 1 -1 -0.086933292449
          0.4314673245 -1 -0.1265091002 0.70215266943 -0.1335721612 -0.16248959303
          0.1617154628 -0.29268714786 0.75481253862 1 -1 1
          1 -0.22023181617 -0.13627293706 1 0.089591823518 1
          0.90650564432 0.11903820187 1 0.67763590813 -0.10998250544 -0.10429394245
          0.29565253854 -1 0.12553678453 0.10490769148 -0.50614273548 0.74534320831
          0.32651054859 -1 1 0.16549728811 -0.6260047555 1
          0.41745722294 0.3515124321 0.13524900377 0.67763590813 -0.10998250544 -0.10429394245
          0.093915216625 0.31169745326 0.64785081148 0.10312362015 0.33780544996 0.62452340126
          0.90650564432 0.11903820187 1 0.2690294385 -0.21245785058 1
          0.25030741096 0.35797375441 1 0.1617154628 -0.29268714786 0.75481253862
          0.4748698771 0.69276356697 1 0.41089093685 0.69184792042 0.82199037075
          1 0.21381640434 -0.32688432932 0.74092501402 1 0.14920140803
          1 1 0.090504638851 0.48658162355 0.34701040387 -0.13984940946
          1 -0.22023181617 -0.13627293706 1 1 1
          1 0.089591823518 1 0.90650564432 0.11903820187 1
          0.67763590813 -0.10998250544 -0.10429394245 0.54050725698 1 0.92144721746
          0.41745722294 0.3515124321 0.13524900377 0.56861686707 1 1
          0.41089093685 0.69184792042 0.82199037075 0.4748698771 0.69276356697 1
          0.70215266943 -0.1335721612 -0.16248959303 0.61137026548 0.13897453249 -0.2785692215
          -0.4373691082 -0.19124598801 0.39301508665 0.093915216625 0.31169745326 0.64785081148
          -1 0.26217314601 0.61494928598 0.1617154628 -0.29268714786 0.75481253862
          -1 -0.2483252883 1 0.10490769148 -0.50614273548 0.74534320831
          -1 0.30561152101 1 0.25030741096 0.35797375441 1
          -0.43682730198 -0.19208548963 0.39342555404 -0.18246470392 0.2822510004 0.48942965269
          -1 -0.24768172204 0.99836486578 -1 0.1314406395 0.57702219486
          0.2690294385 -0.21245785058 1 0.16549728811 -0.6260047555 1
          -1 0.26217314601 0.61494928598 0.10312362015 0.33780544996 0.62452340126
          -0.41944560409 1 0.41865924001 -0.48266834021 0.69520002604 0.35432034731
          -1 0.30561152101 1 0.093915216625 0.31169745326 0.64785081148
          -1 1 1 0.25030741096 0.35797375441 1
          0.56861686707 1 1 0.54050725698 1 0.92144721746
          -1 0.31844192743 0.59069180489 -1 1 0.83624583483
          0.4748698771 0.69276356697 1 0.41089093685 0.69184792042 0.82199037075
          -0.18246470392 0.2822510004 0.48942965269 -0.16692368686 0.30065023899 0.47927618027
        </DataArray>
      </Points>
      <Cells>
        <DataArray type="Int64" Name="connectivity" format="ascii" RangeMin="0" RangeMax="289">
          0 1 2 3 4 5
          6 7 8 9 10 11
          12 13 14 15 16 17
          18 19 20 21 22 23
          24 25 26 27 28 29
          30 31 32 33 34 35
          36 37 38 39 40 41
          42 43 44 45 46 47
          48 49 50 51 52 53
          54 55 56 57 58 59
          60 61 62 63 64 65
          66 67 68 69 70 71
          72 73 74 75 76 77
          78 79 80 81 82 83
          84 85 86 87 88 89
          90 91 92 93 94 95
          96 97 98 99 100 101
          102 103 104 105 106 107
          108 109 110 111 112 113
          114 115 116 117 118 119
          120 121 122 123 124 125
          126 127 128 129 130 131
          132 133 134 135 136 137
          138 139 140 141 142 143
          144 145 146 147 148 149
          150 151 152 153 154 155
          156 157 158 159 160 161
          162 163 164 165 166 167
          168 169 170 171 172 173
          174 175 176 177 178 179
          180 181 182 183 184 185
          186 187 188 189 190 191
          192 193 194 195 196 197
          198 199 200 201 202 203
          204 205 206 207 208 209
          210 211 212 213 214 215
          216 217 218 219 220 221
          222 223 224 225 226 227
          228 229 230 231 232 233
          234 235 236 237 238 239
          240 241 242 243 244 245
          246 247 248 249 250 251
          252 253 254 255 256 257
          258 259 260 261 262 263
          264 265 266 267 268 269
          270 271 272 273 274 275
          276 277 278 279 280 281
          282 283 284 285 286 287
          288 289
        </DataArray>
        <DataArray type="Int64" Name="offsets" format="ascii" RangeMin="18" RangeMax="290">
          18 28 44 56 76 86
          92 106 122 132 156 174
          190 208 220 234 244 260
          274 290
        </DataArray>
        <DataArray type="UInt8" Name="types" format="ascii" RangeMin="42" RangeMax="42">
          42 42 42 42 42 42
          42 42 42 42 42 42
          42 42 42 42 42 42
          42 42
        </DataArray>
        <DataArray type="Int64" Name="faces" format="ascii" RangeMin="0" RangeMax="289">
          11 5 1 15 14 13
          12 5 1 3 8 0
          15 4 1 12 2 3
          5 2 12 13 11 10
          5 2 10 6 8 3
          5 4 6 10 11 7
          5 4 5 0 8 6
          5 4 7 17 9 5
          6 5 9 16 14 15
          0 6 7 11 13 14
          16 17 3 9 17 16
          7 4 19 24 27 22
          5 19 20 18 23 24
          5 19 22 25 21 20
          3 20 21 18 5 21
          25 26 23 18 4 22
          27 26 25 4 23 26
          27 24 10 6 29 31
          34 43 38 39 5 29
          33 40 41 31 5 29
          39 28 37 33 5 30
          36 42 43 34 6 30
          35 32 37 28 36 5
          30 34 31 41 35 4
          32 35 41 40 4 32
          40 33 37 5 36 28
          39 38 42 3 38 43
          42 8 4 45 53 47
          46 6 45 44 54 48
          52 53 6 45 46 49
          50 55 44 4 46 47
          51 49 4 47 53 52
          51 5 48 50 49 51
          52 4 48 54 55 50
          3 54 44 55 12 5
          57 58 67 70 60 4
          57 56 66 58 6 57
          60 72 74 75 56 6
          58 66 64 65 62 67
          5 59 61 71 75 74
          5 59 63 69 68 61
          5 59 74 72 73 63
          4 60 70 73 72 5
          61 68 65 64 71 4
          62 65 68 69 6 62
          69 63 73 70 67 5
          64 66 56 75 71 7
          4 77 79 82 81 5
          77 78 85 83 79 4
          77 81 76 78 4 78
          76 84 85 4 79 83
          80 82 4 80 83 85
          84 5 80 84 76 81
          82 5 3 87 90 88
          4 87 89 91 90 4
          87 88 86 89 4 88
          90 91 86 3 89 86
          91 9 6 93 101 96
          103 102 104 4 93 92
          100 101 5 93 104 105
          98 92 5 94 97 105
          104 102 6 94 103 96
          95 99 97 3 94 102
          103 4 95 96 101 100
          5 95 100 92 98 99
          4 97 99 98 105 10
          5 107 115 119 111 116
          6 107 109 108 114 110
          115 4 107 116 120 109
          4 108 112 106 114 5
          108 109 120 121 112 5
          110 117 118 119 115 4
          110 114 106 117 4 111
          119 118 113 5 111 113
          121 120 116 6 112 121
          113 118 117 106 7 4
          123 124 129 127 4 123
          128 131 124 5 123 127
          126 122 128 4 124 131
          130 129 5 125 130 131
          128 122 5 125 126 127
          129 130 3 125 122 126
          14 6 133 140 135 137
          153 146 5 133 138 145
          144 140 6 133 146 150
          151 141 138 5 134 154
          155 136 148 6 134 132
          141 151 152 154 6 134
          148 149 144 145 132 6
          135 142 136 155 139 137
          5 135 140 144 149 142
          4 136 142 149 148 4
          137 139 147 153 4 138
          141 132 145 6 139 155
          154 152 143 147 5 143
          150 146 153 147 4 143
          152 151 150 11 5 157
          166 163 171 170 6 157
          160 161 164 156 166 4
          157 170 173 160 4 158
          165 156 164 6 158 162
          159 168 169 165 5 158
          164 161 172 162 5 159
          171 163 167 168 6 159
          162 172 173 170 171 4
          160 173 172 161 6 163
          166 156 165 169 167 3
          167 169 168 10 4 175
          179 187 188 5 175 184
          174 176 179 5 175 188
          189 185 184 6 176 180
          182 186 187 179 5 176
          174 177 181 180 4 177
          178 183 181 5 177 174
          184 185 178 6 178 185
          189 186 182 183 4 180
          181 183 182 4 186 189
          188 187 11 4 191 205
          204 192 5 191 196 202
          201 205 6 191 192 197
          195 203 196 6 192 204
          190 200 193 197 6 193
          200 199 194 207 206 5
          193 206 198 195 197 4
          194 201 202 207 6 194
          199 190 204 205 201 3
          195 198 203 6 196 203
          198 206 207 202 3 199
          200 190 8 4 209 213
          217 216 6 209 218 219
          214 212 213 5 209 216
          215 211 218 5 210 208
          215 216 217 4 210 212
          214 208 4 210 217 213
          212 3 211 219 218 5
          211 215 208 214 219 9
          4 221 226 223 222 4
          221 225 227 226 5 221
          222 230 232 225 6 222
          223 229 224 231 230 5
          223 226 227 228 229 4
          224 220 233 231 4 224
          229 228 220 6 225 232
          233 220 228 227 4 230
          231 233 232 7 5 235
          234 237 236 241 5 235
          238 242 243 234 4 235
          241 239 238 5 236 237
          243 242 240 4 236 240
          239 241 3 237 234 243
          4 238 239 240 242 10
          5 245 247 259 244 246
          5 245 253 256 254 247
          5 245 246 249 255 253
          5 246 244 248 250 249
          5 247 254 252 258 259
          4 248 244 259 258 5
          248 258 252 251 250 5
          249 250 251 257 255 5
          251 252 254 256 257 4
          253 255 257 256 9 6
          261 269 260 268 265 263
          5 261 267 266 262 269
          4 261 263 272 267 4
          262 271 260 269 5 262
          266 264 270 271 4 263
          265 273 272 5 264 273
          265 268 270 5 264 266
          267 272 273 4 268 260
          271 270 10 4 275 289
          288 279 6 275 287 283
          276 277 289 5 275 279
          281 286 287 4 276 285
          284 277 5 276 283 282
          280 285 5 277 284 274
          288 289 5 278 281 279
          288 274 5 278 280 282
          286 281 5 278 274 284
          285 280 4 282 283 287
          286
        </DataArray>
        <DataArray type="Int64" Name="faceoffsets" format="ascii" RangeMin="66" RangeMax="1075">
          66 104 163 208 281 319
          343 395 454 492 579 645
          704 770 815 867 905 964
          1016 1075
        </DataArray>
      </Cells>
    </Piece>
  </UnstructuredGrid>
</VTKFile>
