<?xml version="1.0"?>
<VTKFile type="UnstructuredGrid" version="0.1" byte_order="LittleEndian" header_type="UInt32" compressor="vtkZLibDataCompressor">
  <UnstructuredGrid>
    <Piece NumberOfPoints="288" NumberOfCells="20">
      <PointData>
      </PointData>
      <CellData>
        <DataArray type="Int32" Name="cellID" format="ascii" RangeMin="0" RangeMax="19">
          0 1 2 3 4 5
          6 7 8 9 10 11
          12 13 14 15 16 17
          18 19
        </DataArray>
        <DataArray type="Float64" Name="cellVolume" format="ascii" RangeMin="0.049803079438" RangeMax="0.97385679676">
          0.3894955532 0.38629752063 0.30625925014 0.20892090167 0.97385679676 0.4216172078
          0.62512385112 0.2298721366 0.29924187214 0.30685723291 0.38253349008 0.66365368656
          0.57730773201 0.63134041981 0.9228698253 0.049803079438 0.067160977966 0.097571103272
          0.21920133683 0.24101602575
        </DataArray>
        <DataArray type="Int32" Name="cellFaces" format="ascii" RangeMin="4" RangeMax="14">
          8 9 7 8 13 7
          14 9 9 9 10 12
          13 10 14 4 7 7
          7 7
        </DataArray>
        <DataArray type="Float64" Name="cellSurfaceArea" format="ascii" RangeMin="1.1584598513" RangeMax="5.7417027189">
          3.3723838024 3.542177761 3.1446407243 2.5889870617 5.7417027189 3.6364470944
          4.5161480342 2.5735067428 3.1601519795 3.0744624249 3.2974792864 4.5245225893
          4.2502577127 4.6286616987 5.5032333147 1.1584598513 1.271366143 1.4736525764
          2.6776469158 2.663305776
        </DataArray>
      </CellData>
      <Points>
        <DataArray type="Float32" Name="Points" NumberOfComponents="3" format="ascii" RangeMin="0.30534578186" RangeMax="1.7320508076">
          -0.24184864759 -0.68984466791 -1 1 -0.50749206543 -1
          -0.080867469311 0.0085555911064 -1 1 -0.10674145818 -1
          0.70825129747 -0.16654227674 -0.21916984022 1 -0.44966876507 -0.65526592731
          0.23110443354 0.067451067269 -0.19368967414 1 -0.04318061471 -0.44398763776
          0.15757131577 -0.47283285856 -0.055874232203 0.45995849371 -0.43826419115 -0.11450155824
          0.94844037294 -0.031127262861 -0.38666000962 0.41007572412 0.045519154519 -0.21854102612
          -0.3985426724 -1 -1 1 -1 -1
          -0.24184864759 -0.68984466791 -1 1 -0.50749206543 -1
          0.18176861107 -1 -0.038390763104 1 -1 -0.85155427456
          -0.036473721266 -0.90181803703 0.018028598279 1 -0.44966876507 -0.65526592731
          0.15757131577 -0.47283285856 -0.055874232203 0.093416698277 -0.64119821787 0.01223674044
          0.31842017174 -0.60741889477 -0.034172840416 0.45995849371 -0.43826419115 -0.11450155824
          -0.13620083034 -1 -0.14527899027 -0.03205678612 -1 0.0085089551285
          -0.19759841263 0.20446841419 -0.57053309679 -0.97606903315 -0.89319592714 -1
          -1 0.30159366131 -1 -1 -0.88826674223 -1
          -0.56660145521 0.26212278008 0.020856577903 -1 0.31794860959 -0.0066835684702
          -0.095714323223 0.017191050574 -1 -0.1801893115 0.19513656199 -1
          -0.53905814886 0.25162178278 0.016880892217 -0.52962499857 0.25715366006 0.010683232918
          -1 0.30159366131 -1 -0.1801893115 0.19513656199 -1
          -0.19759841263 0.20446841419 -0.57053309679 -0.19216443598 0.58334332705 -1
          -1 0.8076364398 -1 -0.39119300246 0.30165654421 -0.04162729159
          -0.21483504772 0.31734064221 -0.22550870478 -0.52962499857 0.25715366006 0.010683232918
          -0.56660145521 0.26212278008 0.020856577903 -1 0.31794860959 -0.0066835684702
          -1 0.41423761845 0.11893942952 -1 0.4087664783 0.12017259002
          -0.080867469311 0.0085555911064 -1 1 -0.10674145818 -1
          -0.067472048104 1 -1 1 1 -1
          1 -0.014066790231 -0.39589074254 0.37980914116 1 -0.036943819374
          -0.19759841263 0.20446841419 -0.57053309679 -0.0063598076813 1 -0.16869598627
          -0.095714323223 0.017191050574 -1 -0.19216443598 0.58334332705 -1
          -0.1801893115 0.19513656199 -1 -0.078016661108 0.29196023941 -0.043688278645
          0.3994487226 0.83084565401 0.0054624332115 -0.21483504772 0.31734064221 -0.22550870478
          -0.19682258368 0.34560412169 -0.095545522869 0.23110443354 0.067451067269 -0.19368967414
          1 0.9713010788 -0.11845766753 1 1 -0.12613153458
          0.41007572412 0.045519154519 -0.21854102612 -0.0011228983058 0.33210283518 -0.025927294046
          0.94844037294 -0.031127262861 -0.38666000962 1 -0.04318061471 -0.44398763776
          -1 0.8076364398 -1 -0.19216443598 0.58334332705 -1
          -1 1 -1 -0.067472048104 1 -1
          -1 0.41423761845 0.11893942952 -1 1 0.09947296232
          -0.0063598076813 1 -0.16869598627 -0.19682258368 0.34560412169 -0.095545522869
          -0.39119300246 0.30165654421 -0.04162729159 -0.21483504772 0.31734064221 -0.22550870478
          0.15757131577 -0.47283285856 -0.055874232203 0.23110443354 0.067451067269 -0.19368967414
          -0.080867469311 0.0085555911064 -1 -0.095714323223 0.017191050574 -1
          -0.97606903315 -0.89319592714 -1 -0.19759841263 0.20446841419 -0.57053309679
          -0.94407135248 -1 -1 -0.39119300246 0.30165654421 -0.04162729159
          -0.3985426724 -1 -1 -0.24184864759 -0.68984466791 -1
          -0.13620083034 -1 -0.14527899027 -0.53905814886 0.25162178278 0.016880892217
          -0.28972315788 -0.38234052062 0.09432772547 -0.80926126242 -1 -0.82424658537
          -0.32231125236 0.13371306658 0.13260251284 -0.52962499857 0.25715366006 0.010683232918
          -0.21483504772 0.31734064221 -0.22550870478 -0.46180176735 0.17977836728 0.089540198445
          -0.1171380654 -0.59480398893 0.13273487985 -0.036473721266 -0.90181803703 0.018028598279
          0.093416698277 -0.64119821787 0.01223674044 -0.086750172079 -0.65548914671 0.12463211268
          -0.078016661108 0.29196023941 -0.043688278645 -0.19682258368 0.34560412169 -0.095545522869
          -0.13620083034 -1 -0.14527899027 -0.28972315788 -0.38234052062 0.09432772547
          -1 -1 -0.63776177168 -0.80926126242 -1 -0.82424658537
          -0.58545541763 -1 0.39862436056 -1 -0.57695889473 0.33927971125
          -1 -0.80359232426 0.42472022772 -1 -1 0.36872538924
          -0.16926603019 -1 0.29808571935 -0.03205678612 -1 0.0085089551285
          -0.036473721266 -0.90181803703 0.018028598279 -0.098971068859 -0.65337711573 0.15042826533
          -0.086750172079 -0.65548914671 0.12463211268 -0.1171380654 -0.59480398893 0.13273487985
          -1 -1 -1 -0.28972315788 -0.38234052062 0.09432772547
          -0.56660145521 0.26212278008 0.020856577903 -1 -0.88826674223 -1
          -1 -1 -0.63776177168 -1 -0.57695889473 0.33927971125
          -1 0.4087664783 0.12017259002 -0.97606903315 -0.89319592714 -1
          -0.94407135248 -1 -1 -0.80926126242 -1 -0.82424658537
          -1 0.31794860959 -0.0066835684702 -0.46180176735 0.17977836728 0.089540198445
          -0.53905814886 0.25162178278 0.016880892217 -1 0.3471455276 0.24200798571
          0.7526910305 -1 0.41924986243 0.18176861107 -1 -0.038390763104
          0.45995849371 -0.43826419115 -0.11450155824 0.70825129747 -0.16654227674 -0.21916984022
          1 -1 0.38544988632 1 -0.04318061471 -0.44398763776
          0.31842017174 -0.60741889477 -0.034172840416 0.91459697485 -0.42435926199 0.39460101724
          0.97201514244 -0.37265595794 0.38652721047 1 -0.36391156912 0.38266417384
          1 -0.44966876507 -0.65526592731 1 -1 -0.85155427456
          0.94844037294 -0.031127262861 -0.38666000962 1 -0.014066790231 -0.39589074254
          0.75880616903 -0.35054135323 1 0.91459697485 -0.42435926199 0.39460101724
          -0.036473721266 -0.90181803703 0.018028598279 -0.06122476235 -0.50233143568 1
          -0.13854320347 -0.87745314837 1 0.58420610428 -1 1
          0.7526910305 -1 0.41924986243 0.18176861107 -1 -0.038390763104
          -0.16577422619 -1 0.74664771557 -0.11601194739 -1 1
          0.31842017174 -0.60741889477 -0.034172840416 -0.086750172079 -0.65548914671 0.12463211268
          -0.098971068859 -0.65337711573 0.15042826533 0.093416698277 -0.64119821787 0.01223674044
          -0.03205678612 -1 0.0085089551285 -0.16926603019 -1 0.29808571935
          -1 -0.57695889473 0.33927971125 -0.16926603019 -1 0.29808571935
          -0.32231125236 0.13371306658 0.13260251284 -0.06122476235 -0.50233143568 1
          -1 0.23961743712 1 -0.13854320347 -0.87745314837 1
          -1 0.3471455276 0.24200798571 -0.098971068859 -0.65337711573 0.15042826533
          -0.16577422619 -1 0.74664771557 -0.46180176735 0.17977836728 0.089540198445
          -0.31083118916 -0.80158394575 1 -1 -0.70138412714 0.61719071865
          -0.58545541763 -1 0.39862436056 -1 -0.80359232426 0.42472022772
          -1 0.32248175144 1 -0.31800585985 0.10411088914 1
          -0.1171380654 -0.59480398893 0.13273487985 -0.28972315788 -0.38234052062 0.09432772547
          -0.18013598025 -0.080082640052 1 -0.245790869 0.087358474731 0.80421698093
          0.040297117084 0.28686970472 0.49023348093 0.82541143894 -0.28712880611 1
          0.23110443354 0.067451067269 -0.19368967414 0.15757131577 -0.47283285856 -0.055874232203
          0.093416698277 -0.64119821787 0.01223674044 0.97201514244 -0.37265595794 0.38652721047
          0.76985251904 -0.24761192501 1 0.75880616903 -0.35054135323 1
          0.91459697485 -0.42435926199 0.39460101724 -0.18013598025 -0.080082640052 1
          -0.06122476235 -0.50233143568 1 -0.098971068859 -0.65337711573 0.15042826533
          -0.078016661108 0.29196023941 -0.043688278645 0.70825129747 -0.16654227674 -0.21916984022
          0.45995849371 -0.43826419115 -0.11450155824 0.31842017174 -0.60741889477 -0.034172840416
          -0.32231125236 0.13371306658 0.13260251284 -0.245790869 0.087358474731 0.80421698093
          -0.0011228983058 0.33210283518 -0.025927294046 0.41007572412 0.045519154519 -0.21854102612
          -0.1171380654 -0.59480398893 0.13273487985 -0.086750172079 -0.65548914671 0.12463211268
          0.040297117084 0.28686970472 0.49023348093 0.82541143894 -0.28712880611 1
          0.76985251904 -0.24761192501 1 1 0.9713010788 -0.11845766753
          1 -0.36391156912 0.38266417384 1 0.58501207829 0.7673368454
          1 -0.0070198378526 1 0.3994487226 0.83084565401 0.0054624332115
          0.29718154669 0.61492401361 0.46684584022 -0.0011228983058 0.33210283518 -0.025927294046
          0.97201514244 -0.37265595794 0.38652721047 1 -0.22723980248 1
          0.70825129747 -0.16654227674 -0.21916984022 1 -0.014066790231 -0.39589074254
          0.41007572412 0.045519154519 -0.21854102612 0.94844037294 -0.031127262861 -0.38666000962
          -0.0011228983058 0.33210283518 -0.025927294046 0.3994487226 0.83084565401 0.0054624332115
          -1 1 0.09947296232 0.055585600436 1 1
          -0.31800585985 0.10411088914 1 0.11727554351 0.68281173706 1
          -1 1 1 -1 0.32248175144 1
          0.29718154669 0.61492401361 0.46684584022 -0.245790869 0.087358474731 0.80421698093
          0.040297117084 0.28686970472 0.49023348093 -0.19682258368 0.34560412169 -0.095545522869
          -1 0.41423761845 0.11893942952 -1 0.4087664783 0.12017259002
          -0.0063598076813 1 -0.16869598627 0.37980914116 1 -0.036943819374
          -0.46180176735 0.17977836728 0.089540198445 -0.39119300246 0.30165654421 -0.04162729159
          -0.53905814886 0.25162178278 0.016880892217 -1 0.3471455276 0.24200798571
          -0.56660145521 0.26212278008 0.020856577903 -0.52962499857 0.25715366006 0.010683232918
          -0.078016661108 0.29196023941 -0.043688278645 -0.32231125236 0.13371306658 0.13260251284
          -0.31083118916 -0.80158394575 1 -1 -0.89304214716 1
          -1 -0.70138412714 0.61719071865 -1 0.23961743712 1
          -1 -0.80359232426 0.42472022772 -0.16577422619 -1 0.74664771557
          -1 -0.89304214716 1 -1 -0.70138412714 0.61719071865
          -1 -1 1 -0.31083118916 -0.80158394575 1
          -0.58545541763 -1 0.39862436056 -1 -1 0.36872538924
          -0.13854320347 -0.87745314837 1 -0.11601194739 -1 1
          1 -1 1 0.7526910305 -1 0.41924986243
          1 -0.22723980248 1 0.58420610428 -1 1
          0.91459697485 -0.42435926199 0.39460101724 1 -1 0.38544988632
          0.75880616903 -0.35054135323 1 1 -0.36391156912 0.38266417384
          0.97201514244 -0.37265595794 0.38652721047 0.82541143894 -0.28712880611 1
          0.29718154669 0.61492401361 0.46684584022 1 -0.0070198378526 1
          0.040297117084 0.28686970472 0.49023348093 1 0.58501207829 0.7673368454
          -0.31800585985 0.10411088914 1 0.76985251904 -0.24761192501 1
          0.11727554351 0.68281173706 1 1 0.60798233747 1
          -0.245790869 0.087358474731 0.80421698093 -0.18013598025 -0.080082640052 1
          1 0.58501207829 0.7673368454 0.29718154669 0.61492401361 0.46684584022
          0.37980914116 1 -0.036943819374 0.3994487226 0.83084565401 0.0054624332115
          0.11727554351 0.68281173706 1 1 0.60798233747 1
          0.055585600436 1 1 1 1 1
          1 1 -0.12613153458 1 0.9713010788 -0.11845766753
        </DataArray>
      </Points>
      <Cells>
        <DataArray type="Int64" Name="connectivity" format="ascii" RangeMin="0" RangeMax="287">
          0 1 2 3 4 5
          6 7 8 9 10 11
          12 13 14 15 16 17
          18 19 20 21 22 23
          24 25 26 27 28 29
          30 31 32 33 34 35
          36 37 38 39 40 41
          42 43 44 45 46 47
          48 49 50 51 52 53
          54 55 56 57 58 59
          60 61 62 63 64 65
          66 67 68 69 70 71
          72 73 74 75 76 77
          78 79 80 81 82 83
          84 85 86 87 88 89
          90 91 92 93 94 95
          96 97 98 99 100 101
          102 103 104 105 106 107
          108 109 110 111 112 113
          114 115 116 117 118 119
          120 121 122 123 124 125
          126 127 128 129 130 131
          132 133 134 135 136 137
          138 139 140 141 142 143
          144 145 146 147 148 149
          150 151 152 153 154 155
          156 157 158 159 160 161
          162 163 164 165 166 167
          168 169 170 171 172 173
          174 175 176 177 178 179
          180 181 182 183 184 185
          186 187 188 189 190 191
          192 193 194 195 196 197
          198 199 200 201 202 203
          204 205 206 207 208 209
          210 211 212 213 214 215
          216 217 218 219 220 221
          222 223 224 225 226 227
          228 229 230 231 232 233
          234 235 236 237 238 239
          240 241 242 243 244 245
          246 247 248 249 250 251
          252 253 254 255 256 257
          258 259 260 261 262 263
          264 265 266 267 268 269
          270 271 272 273 274 275
          276 277 278 279 280 281
          282 283 284 285 286 287
        </DataArray>
        <DataArray type="Int64" Name="offsets" format="ascii" RangeMin="12" RangeMax="288">
          12 26 36 48 70 80
          104 118 132 146 162 182
          204 220 244 248 258 268
          278 288
        </DataArray>
        <DataArray type="UInt8" Name="types" format="ascii" RangeMin="42" RangeMax="42">
          42 42 42 42 42 42
          42 42 42 42 42 42
          42 42 42 42 42 42
          42 42
        </DataArray>
        <DataArray type="Int64" Name="faces" format="ascii" RangeMin="0" RangeMax="287">
          8 5 1 0 8 9
          5 4 1 3 2 0
          4 1 5 7 3 6
          2 3 7 10 11 6
          4 2 6 8 0 3
          4 11 10 5 4 9
          8 6 11 5 4 10
          7 5 9 9 4 13
          15 14 12 4 13 17
          19 15 6 13 12 24
          25 16 17 6 14 20
          21 18 24 12 5 14
          15 19 23 20 5 16
          25 18 21 22 5 16
          22 23 19 17 3 18
          25 24 4 20 23 22
          21 7 5 27 29 31
          30 34 5 27 32 33
          28 29 5 27 34 35
          26 32 6 28 33 26
          35 30 31 3 28 31
          29 3 30 35 34 3
          32 26 33 8 4 37
          38 42 39 6 37 36
          45 44 43 38 4 37
          39 40 36 4 38 43
          41 42 5 39 42 41
          46 40 5 40 46 47
          45 36 5 41 43 44
          47 46 3 44 45 47
          13 6 49 48 63 66
          68 69 7 49 51 50
          57 58 56 48 6 49
          69 52 64 65 51 5
          50 55 62 61 57 5
          50 51 65 53 55 3
          52 69 68 6 52 68
          66 67 60 64 4 53
          65 64 60 6 53 60
          67 59 62 55 7 54
          61 62 59 63 48 56
          4 54 58 57 61 3
          54 56 58 4 59 67
          66 63 7 5 71 79
          77 76 73 5 71 70
          74 78 79 4 71 73
          72 70 4 72 75 74
          70 4 72 73 76 75
          5 74 75 76 77 78
          3 77 79 78 14 7
          81 80 100 101 98 94
          102 4 81 82 89 80
          7 81 102 103 96 85
          83 82 6 82 83 84
          86 88 89 5 83 85
          95 91 84 6 84 91
          97 92 93 86 4 85
          96 87 95 4 86 93
          90 88 7 87 103 102
          94 97 91 95 3 87
          96 103 6 88 90 99
          100 80 89 6 90 93
          92 98 101 99 4 92
          97 94 98 3 99 101
          100 9 6 105 107 104
          114 116 117 4 105 109
          106 107 7 105 117 115
          112 108 110 109 7 106
          111 108 112 113 104 107
          4 106 109 110 111 3
          108 111 110 5 112 115
          116 114 113 3 113 114
          104 3 115 117 116 9
          6 119 129 130 125 126
          127 4 119 123 131 129
          4 119 127 122 123 5
          120 130 129 131 124 5
          120 128 121 125 130 3
          120 124 128 4 121 118
          126 125 7 121 128 124
          131 123 122 118 4 122
          127 126 118 9 5 133
          143 142 134 138 4 133
          132 136 143 4 133 138
          139 132 5 134 135 140
          139 138 5 134 142 137
          144 135 5 135 144 145
          141 140 5 136 132 139
          140 141 6 136 141 145
          137 142 143 3 137 145
          144 10 7 147 146 149
          158 157 159 156 4 147
          152 151 146 4 147 156
          153 152 5 148 157 158
          161 160 3 148 159 157
          5 148 160 153 156 159
          5 149 150 154 161 158
          5 149 146 151 155 150
          3 150 155 154 7 151
          152 153 160 161 154 155
          12 5 163 170 167 165
          169 3 163 174 170 7
          163 169 178 179 162 175
          174 6 164 181 177 176
          168 171 6 164 178 169
          165 180 181 4 164 171
          179 178 7 165 167 172
          166 176 177 180 3 166
          172 173 6 166 173 175
          162 168 176 6 167 170
          174 175 173 172 4 168
          162 179 171 3 177 181
          180 13 4 183 187 190
          189 7 183 188 182 200
          201 195 187 5 183 189
          192 191 188 4 184 201
          200 194 5 184 185 196
          195 201 7 184 194 198
          202 203 186 185 4 185
          186 197 196 7 186 203
          193 192 189 190 197 5
          187 195 196 197 190 4
          188 191 199 182 6 191
          192 193 202 198 199 3
          193 203 202 5 194 200
          182 199 198 10 4 205
          215 208 214 4 205 206
          210 215 7 205 214 216
          218 213 204 206 5 206
          204 212 209 210 6 207
          211 213 218 219 217 4
          207 209 212 211 6 207
          217 208 215 210 209 5
          208 217 219 216 214 4
          211 212 204 213 3 216
          219 218 14 6 221 235
          234 231 242 220 5 221
          228 225 223 235 4 221
          220 230 228 5 222 232
          237 231 234 6 222 226
          227 239 233 232 5 222
          234 235 223 226 5 223
          225 224 227 226 6 224
          229 243 236 239 227 5
          224 225 228 230 229 5
          229 230 220 242 243 7
          231 237 241 238 236 243
          242 5 232 233 240 241
          237 5 233 239 236 238
          240 3 238 241 240 4
          3 245 244 246 3 245
          247 244 3 245 246 247
          3 246 244 247 7 3
          249 257 256 5 249 254
          255 252 257 6 249 256
          253 251 248 254 3 250
          251 253 5 250 252 255
          248 251 5 250 253 256
          257 252 3 254 248 255
          7 5 259 263 265 266
          262 4 259 261 258 263
          4 259 262 264 261 4
          260 267 266 265 5 260
          258 261 264 267 4 260
          265 263 258 4 262 266
          267 264 7 5 269 271
          268 270 273 3 269 275
          271 6 269 273 277 272
          274 275 5 270 268 274
          272 276 4 270 276 277
          273 4 271 275 274 268
          3 272 277 276 7 4
          279 278 287 281 4 279
          282 283 278 5 279 281
          280 284 282 4 280 281
          287 286 4 280 286 285
          284 4 282 284 285 283
          5 283 285 286 287 278
        </DataArray>
        <DataArray type="Int64" Name="faceoffsets" format="ascii" RangeMin="45" RangeMax="1068">
          45 97 135 180 260 298
          385 437 489 541 600 673
          753 812 899 916 954 992
          1030 1068
        </DataArray>
      </Cells>
    </Piece>
  </UnstructuredGrid>
</VTKFile>
