<?xml version="1.0"?>
<VTKFile type="UnstructuredGrid" version="0.1" byte_order="LittleEndian" header_type="UInt32" compressor="vtkZLibDataCompressor">
  <UnstructuredGrid>
    <Piece NumberOfPoints="346" NumberOfCells="20">
      <PointData>
      </PointData>
      <CellData>
        <DataArray type="Int32" Name="cellID" format="ascii" RangeMin="0" RangeMax="19">
          0 1 2 3 4 5
          6 7 8 9 10 11
          12 13 14 15 16 17
          18 19
        </DataArray>
        <DataArray type="Float64" Name="cellVolume" format="ascii" RangeMin="0.15988729235" RangeMax="0.78067457938">
          0.21905173267 0.78067457938 0.29231644704 0.59689266119 0.38038042181 0.65805267517
          0.2869114914 0.36093435976 0.15988729235 0.4007684022 0.52173770409 0.39032626595
          0.25133548637 0.43943487628 0.48941538221 0.28586574983 0.35763465531 0.24684753577
          0.37364871693 0.50788356428
        </DataArray>
        <DataArray type="Int32" Name="cellFaces" format="ascii" RangeMin="7" RangeMax="14">
          7 12 11 9 10 14
          12 12 8 11 11 14
          9 11 13 8 11 9
          12 9
        </DataArray>
        <DataArray type="Float64" Name="cellSurfaceArea" format="ascii" RangeMin="2.1224888244" RangeMax="5.2686304398">
          2.5066865399 5.2686304398 2.9103708499 4.4019583311 3.2031714445 4.4357909152
          2.9337992497 3.3427385213 2.1224888244 3.4680945852 4.0089490212 3.7011326957
          3.248148249 3.6252032485 3.9281460561 3.2714306653 4.5893176545 2.6867052225
          3.3912545474 4.3704545578
        </DataArray>
      </CellData>
      <Points>
        <DataArray type="Float32" Name="Points" NumberOfComponents="3" format="ascii" RangeMin="0.44911175283" RangeMax="1.7320508076">
          -1 -1 -1 -0.037283226848 -0.76258677244 -1
          -1 -1 -0.56752312183 -1 -0.074549227953 -0.70249247551
          -0.38498607278 -1 -0.49699595571 -0.85691255331 -0.09370432049 -0.68329024315
          0.043600659817 -1 -0.91000950336 0.052176438272 -1 -1
          -0.49880585074 -0.13383221626 -1 -1 -0.068177871406 -1
          0.043600659817 -1 -0.91000950336 1 -1 -1
          0.090049810708 0.14999632537 -0.55795991421 1 -0.087234281003 -1
          1 -0.56959432364 0.16669219732 1 -1 0.059010375291
          0.081323042512 0.16230115294 -0.57077729702 1 0.045261383057 -0.13565737009
          0.121292606 0.16850981116 -0.55433249474 0.094455383718 0.17177215219 -0.57039356232
          0.38091719151 -0.40767422318 -0.16520361602 0.58135795593 -1 -0.19282159209
          0.3750397861 -0.82931059599 -0.27422699332 0.35423094034 -1 -0.35149860382
          0.021321168169 0.12151695043 -1 -0.1320181936 -0.033138014376 -1
          0.026705084369 0.1347450763 -0.9062140584 -0.025736119598 0.092381887138 -0.77959561348
          -0.037283226848 -0.76258677244 -1 0.052176438272 -1 -1
          -0.1320181936 -0.033138014376 -1 -0.56596237421 1 -0.85525625944
          -1 0.0087856240571 -0.50794619322 -0.47464263439 1 -1
          -0.54722249508 0.33984705806 -0.20712257922 -0.49880585074 -0.13383221626 -1
          -0.67285096645 1 -1 -1 0.53038680553 -1
          0.021321168169 0.12151695043 -1 0.036676160991 0.21069219708 -1
          -0.67040324211 0.16487538815 -0.20886853337 -0.32324531674 0.17827947438 -0.39623567462
          -0.86302536726 0.046705309302 -0.3582328558 -1 -0.068177871406 -1
          0.026705084369 0.1347450763 -0.9062140584 -0.025736119598 0.092381887138 -0.77959561348
          -1 -0.074549227953 -0.70249247551 -0.85691255331 -0.09370432049 -0.68329024315
          0.026705084369 0.1347450763 -0.9062140584 1 -0.087234281003 -1
          0.30096209049 1 -1 1 1 -1
          1 0.68222731352 0.087336242199 1 0.045261383057 -0.13565737009
          0.41698160768 1 -0.29611507058 0.37578442693 0.86250686646 -0.26675117016
          0.036676160991 0.21069219708 -1 0.021321168169 0.12151695043 -1
          0.094455383718 0.17177215219 -0.57039356232 0.121292606 0.16850981116 -0.55433249474
          1 0.87416231632 0.12315267324 1 1 0.072442673147
          0.036676160991 0.21069219708 -1 0.30096209049 1 -1
          -0.47464263439 1 -1 0.41698160768 1 -0.29611507058
          -0.56596237421 1 -0.85525625944 0.37578442693 0.86250686646 -0.26675117016
          -0.46360459924 1 -0.12539485097 0.26611456275 0.83172053099 -0.2407028079
          -0.48160108924 0.78872835636 -0.089058071375 -0.32324531674 0.17827947438 -0.39623567462
          -0.025736119598 0.092381887138 -0.77959561348 0.081323042512 0.16230115294 -0.57077729702
          -0.54722249508 0.33984705806 -0.20712257922 -0.52786779404 0.44519099593 -0.15121689439
          0.026705084369 0.1347450763 -0.9062140584 0.094455383718 0.17177215219 -0.57039356232
          -0.33364588022 -1 -0.22580292821 -0.037283226848 -0.76258677244 -1
          0.081323042512 0.16230115294 -0.57077729702 -0.1320181936 -0.033138014376 -1
          -0.38498607278 -1 -0.49699595571 0.3750397861 -0.82931059599 -0.27422699332
          -0.67040324211 0.16487538815 -0.20886853337 -0.73052877188 0.15014719963 -0.15921629965
          0.35423094034 -1 -0.35149860382 0.043600659817 -1 -0.91000950336
          -0.5806645751 -0.34786260128 0.12908683717 -0.59924668074 -0.017155818641 0.0089157512411
          -0.85691255331 -0.09370432049 -0.68329024315 -0.49880585074 -0.13383221626 -1
          0.38091719151 -0.40767422318 -0.16520361602 0.090049810708 0.14999632537 -0.55795991421
          -0.42650213838 -0.16577851772 0.13098987937 -0.5923332572 -0.31937626004 0.13994823396
          -0.82001543045 0.059371560812 -0.098806634545 -0.42578315735 -0.16693805158 0.13172829151
          -0.025736119598 0.092381887138 -0.77959561348 -0.32324531674 0.17827947438 -0.39623567462
          -0.86302536726 0.046705309302 -0.3582328558 -0.84896701574 0.10272434354 -0.1414026767
          -0.54722249508 0.33984705806 -0.20712257922 -1 0.53038680553 -1
          -1 1 -1 -0.67285096645 1 -1
          -1 0.89320671558 0.23610751331 -0.48160108924 0.78872835636 -0.089058071375
          -1 1 0.2236597389 -0.46360459924 1 -0.12539485097
          -0.52786779404 0.44519099593 -0.15121689439 -0.56596237421 1 -0.85525625944
          -0.7873930335 0.7603431344 0.11324193329 -0.67040324211 0.16487538815 -0.20886853337
          -1 0.0087856240571 -0.50794619322 -0.86302536726 0.046705309302 -0.3582328558
          -0.63535398245 0.36870384216 -0.098295561969 -0.73052877188 0.15014719963 -0.15921629965
          -0.84896701574 0.10272434354 -0.1414026767 -1 0.11480781436 -0.09818482399
          -0.93186736107 0.11090895534 -0.11168211699 -1 0.15723340213 -0.070746161044
          -1 -1 -0.56752312183 -0.93186736107 0.11090895534 -0.11168211699
          -0.38498607278 -1 -0.49699595571 -0.60110980272 -1 0.22523930669
          -0.82001543045 0.059371560812 -0.098806634545 -0.33364588022 -1 -0.22580292821
          -0.5806645751 -0.34786260128 0.12908683717 -0.67608124018 -0.50576466322 0.30492755771
          -0.84896701574 0.10272434354 -0.1414026767 -1 -1 0.54092389345
          -0.60151201487 -0.34780228138 0.16423764825 -0.5923332572 -0.31937626004 0.13994823396
          -1 0.0087856240571 -0.50794619322 -0.72120565176 -0.67402619123 0.39693671465
          -1 -0.75631308556 0.57795184851 -1 -0.78799843788 0.59077602625
          -0.86302536726 0.046705309302 -0.3582328558 -1 0.11480781436 -0.09818482399
          -0.85691255331 -0.09370432049 -0.68329024315 -1 -0.074549227953 -0.70249247551
          -0.33364588022 -1 -0.22580292821 0.35423094034 -1 -0.35149860382
          -0.34870654345 -0.64143067598 0.47719353437 -0.5806645751 -0.34786260128 0.12908683717
          -0.60110980272 -1 0.22523930669 -0.60151201487 -0.34780228138 0.16423764825
          -0.56906354427 -0.41432026029 0.27716678381 0.25183799863 -1 0.36518648267
          -0.72120565176 -0.67402619123 0.39693671465 -0.67608124018 -0.50576466322 0.30492755771
          0.3750397861 -0.82931059599 -0.27422699332 0.58135795593 -1 -0.19282159209
          -0.34870654345 -0.64143067598 0.47719353437 1 -0.93862849474 0.7069658637
          0.38091719151 -0.40767422318 -0.16520361602 0.12954740226 -0.63076066971 0.66861540079
          1 -0.56959432364 0.16669219732 1 -1 0.64882683754
          0.25183799863 -1 0.36518648267 -0.31832665205 -0.19163565338 0.27289476991
          1 -0.56528747082 0.27230408788 1 -1 0.059010375291
          -0.60151201487 -0.34780228138 0.16423764825 -0.23642958701 -0.21305257082 0.31687697768
          -0.42578315735 -0.16693805158 0.13172829151 -0.5923332572 -0.31937626004 0.13994823396
          -0.5806645751 -0.34786260128 0.12908683717 -0.56906354427 -0.41432026029 0.27716678381
          0.58135795593 -1 -0.19282159209 0.3750397861 -0.82931059599 -0.27422699332
          -0.26019191742 -0.072752393782 0.37668415904 0.090049810708 0.14999632537 -0.55795991421
          1 -0.22558397055 0.42227485776 1 -0.56959432364 0.16669219732
          1 -0.56528747082 0.27230408788 0.38091719151 -0.40767422318 -0.16520361602
          0.28175467253 0.24933189154 0.56749892235 1 0.68116784096 0.16928899288
          -0.25568166375 -0.067510873079 0.3794028163 -0.23642958701 -0.21305257082 0.31687697768
          -0.42650213838 -0.16577851772 0.13098987937 1 0.045261383057 -0.13565737009
          -0.26411911845 -0.072419926524 0.37140673399 -0.42578315735 -0.16693805158 0.13172829151
          -0.27275633812 -0.14098750055 0.34543278813 -0.31832665205 -0.19163565338 0.27289476991
          0.121292606 0.16850981116 -0.55433249474 1 0.68222731352 0.087336242199
          -0.63535398245 0.36870384216 -0.098295561969 1 0.68222731352 0.087336242199
          -0.52786779404 0.44519099593 -0.15121689439 1 0.87416231632 0.12315267324
          -0.42650213838 -0.16577851772 0.13098987937 0.37578442693 0.86250686646 -0.26675117016
          -0.59924668074 -0.017155818641 0.0089157512411 0.081323042512 0.16230115294 -0.57077729702
          1 0.68116784096 0.16928899288 0.28175467253 0.24933189154 0.56749892235
          -0.25568166375 -0.067510873079 0.3794028163 -0.0074791284278 0.22624367476 0.58782821894
          0.094455383718 0.17177215219 -0.57039356232 0.18653684855 0.29151824117 0.615242064
          1 0.86294394732 0.16006158292 0.89183729887 0.82254230976 0.21877893806
          0.26611456275 0.83172053099 -0.2407028079 -0.26411911845 -0.072419926524 0.37140673399
          -0.32324531674 0.17827947438 -0.39623567462 -0.54722249508 0.33984705806 -0.20712257922
          0.121292606 0.16850981116 -0.55433249474 0.090049810708 0.14999632537 -0.55795991421
          -0.67040324211 0.16487538815 -0.20886853337 -0.73052877188 0.15014719963 -0.15921629965
          -0.60110980272 -1 0.22523930669 -0.34870654345 -0.64143067598 0.47719353437
          0.25183799863 -1 0.36518648267 -1 -1 0.54092389345
          -1 -1 1 1 -1 1
          -1 -0.93236929178 1 1 -1 0.64882683754
          0.28602460027 -0.7220839262 1 0.12954740226 -0.63076066971 0.66861540079
          -1 -0.78799843788 0.59077602625 -0.72120565176 -0.67402619123 0.39693671465
          1 -0.97111999989 1 1 -0.93862849474 0.7069658637
          -0.26019191742 -0.072752393782 0.37668415904 0.28602460027 -0.7220839262 1
          -0.0074791284278 0.22624367476 0.58782821894 0.12954740226 -0.63076066971 0.66861540079
          1 -0.22558397055 0.42227485776 1 -0.97111999989 1
          1 -0.64681643248 1 1 -0.93862849474 0.7069658637
          -0.25568166375 -0.067510873079 0.3794028163 0.28175467253 0.24933189154 0.56749892235
          -0.23642958701 -0.21305257082 0.31687697768 1 -0.56528747082 0.27230408788
          -0.27275633812 -0.14098750055 0.34543278813 -0.18268033862 0.030079545453 1
          -0.17630265653 0.076436981559 1 -0.057352695614 0.20820137858 1
          0.050385989249 0.30480226874 0.74802219868 0.18653684855 0.29151824117 0.615242064
          -0.7873930335 0.7603431344 0.11324193329 -0.71411204338 1 1
          -0.26019191742 -0.072752393782 0.37668415904 -0.09097224474 0.72122228146 1
          -1 0.48499140143 1 -0.17630265653 0.076436981559 1
          -1 1 1 -1 0.89320671558 0.23610751331
          -0.63535398245 0.36870384216 -0.098295561969 -1 1 0.58370506763
          -0.057352695614 0.20820137858 1 -0.26411911845 -0.072419926524 0.37140673399
          -0.25568166375 -0.067510873079 0.3794028163 -0.0074791284278 0.22624367476 0.58782821894
          0.050385989249 0.30480226874 0.74802219868 -0.038076657802 0.6545612216 1
          -0.93186736107 0.11090895534 -0.11168211699 -1 0.15723340213 -0.070746161044
          -0.73052877188 0.15014719963 -0.15921629965 -0.59924668074 -0.017155818641 0.0089157512411
          -0.84896701574 0.10272434354 -0.1414026767 -0.82001543045 0.059371560812 -0.098806634545
          -0.7873930335 0.7603431344 0.11324193329 -0.038076657802 0.6545612216 1
          -0.09097224474 0.72122228146 1 -0.0074791284278 0.22624367476 0.58782821894
          0.26611456275 0.83172053099 -0.2407028079 -0.0012094707927 0.7249815464 1
          0.050385989249 0.30480226874 0.74802219868 0.89183729887 0.82254230976 0.21877893806
          -0.48160108924 0.78872835636 -0.089058071375 0.18653684855 0.29151824117 0.615242064
          -0.52786779404 0.44519099593 -0.15121689439 -0.63535398245 0.36870384216 -0.098295561969
          -0.46360459924 1 -0.12539485097 0.37578442693 0.86250686646 -0.26675117016
          1 0.87416231632 0.12315267324 1 0.86294394732 0.16006158292
          -0.71411204338 1 1 0.89183729887 0.82254230976 0.21877893806
          -1 1 0.58370506763 -0.0012094707927 0.7249815464 1
          -1 0.89320671558 0.23610751331 0.26611456275 0.83172053099 -0.2407028079
          -1 1 0.2236597389 -0.09097224474 0.72122228146 1
          1 1 0.33219501376 0.34010469913 1 1
          -0.48160108924 0.78872835636 -0.089058071375 -0.7873930335 0.7603431344 0.11324193329
          0.41698160768 1 -0.29611507058 1 1 0.072442673147
          -0.67608124018 -0.50576466322 0.30492755771 0.28602460027 -0.7220839262 1
          -1 -0.69773173332 1 -0.56906354427 -0.41432026029 0.27716678381
          -1 -0.93236929178 1 -0.18268033862 0.030079545453 1
          -0.23642958701 -0.21305257082 0.31687697768 0.12954740226 -0.63076066971 0.66861540079
          -0.34870654345 -0.64143067598 0.47719353437 -0.72120565176 -0.67402619123 0.39693671465
          -0.31832665205 -0.19163565338 0.27289476991 -0.27275633812 -0.14098750055 0.34543278813
          -1 -0.78799843788 0.59077602625 -1 -0.75631308556 0.57795184851
          -0.56906354427 -0.41432026029 0.27716678381 -0.26019191742 -0.072752393782 0.37668415904
          -1 0.48499140143 1 -0.18268033862 0.030079545453 1
          -1 -0.69773173332 1 -0.67608124018 -0.50576466322 0.30492755771
          -0.42578315735 -0.16693805158 0.13172829151 -0.17630265653 0.076436981559 1
          -1 0.15723340213 -0.070746161044 -0.42650213838 -0.16577851772 0.13098987937
          -1 -0.75631308556 0.57795184851 -0.26411911845 -0.072419926524 0.37140673399
          -0.27275633812 -0.14098750055 0.34543278813 -0.31832665205 -0.19163565338 0.27289476991
          -0.5923332572 -0.31937626004 0.13994823396 -0.60151201487 -0.34780228138 0.16423764825
          -0.82001543045 0.059371560812 -0.098806634545 -0.59924668074 -0.017155818641 0.0089157512411
          -0.93186736107 0.11090895534 -0.11168211699 -1 0.11480781436 -0.09818482399
          0.89183729887 0.82254230976 0.21877893806 1 1 0.33219501376
          1 1 1 1 0.86294394732 0.16006158292
          -0.038076657802 0.6545612216 1 1 -0.64681643248 1
          1 0.68116784096 0.16928899288 1 -0.22558397055 0.42227485776
          0.28175467253 0.24933189154 0.56749892235 0.18653684855 0.29151824117 0.615242064
          0.050385989249 0.30480226874 0.74802219868 -0.057352695614 0.20820137858 1
          -0.0012094707927 0.7249815464 1 0.34010469913 1 1
        </DataArray>
      </Points>
      <Cells>
        <DataArray type="Int64" Name="connectivity" format="ascii" RangeMin="0" RangeMax="345">
          0 1 2 3 4 5
          6 7 8 9 10 11
          12 13 14 15 16 17
          18 19 20 21 22 23
          24 25 26 27 28 29
          30 31 32 33 34 35
          36 37 38 39 40 41
          42 43 44 45 46 47
          48 49 50 51 52 53
          54 55 56 57 58 59
          60 61 62 63 64 65
          66 67 68 69 70 71
          72 73 74 75 76 77
          78 79 80 81 82 83
          84 85 86 87 88 89
          90 91 92 93 94 95
          96 97 98 99 100 101
          102 103 104 105 106 107
          108 109 110 111 112 113
          114 115 116 117 118 119
          120 121 122 123 124 125
          126 127 128 129 130 131
          132 133 134 135 136 137
          138 139 140 141 142 143
          144 145 146 147 148 149
          150 151 152 153 154 155
          156 157 158 159 160 161
          162 163 164 165 166 167
          168 169 170 171 172 173
          174 175 176 177 178 179
          180 181 182 183 184 185
          186 187 188 189 190 191
          192 193 194 195 196 197
          198 199 200 201 202 203
          204 205 206 207 208 209
          210 211 212 213 214 215
          216 217 218 219 220 221
          222 223 224 225 226 227
          228 229 230 231 232 233
          234 235 236 237 238 239
          240 241 242 243 244 245
          246 247 248 249 250 251
          252 253 254 255 256 257
          258 259 260 261 262 263
          264 265 266 267 268 269
          270 271 272 273 274 275
          276 277 278 279 280 281
          282 283 284 285 286 287
          288 289 290 291 292 293
          294 295 296 297 298 299
          300 301 302 303 304 305
          306 307 308 309 310 311
          312 313 314 315 316 317
          318 319 320 321 322 323
          324 325 326 327 328 329
          330 331 332 333 334 335
          336 337 338 339 340 341
          342 343 344 345
        </DataArray>
        <DataArray type="Int64" Name="offsets" format="ascii" RangeMin="10" RangeMax="346">
          10 30 48 62 78 102
          122 142 154 172 190 214
          228 246 268 280 298 312
          332 346
        </DataArray>
        <DataArray type="UInt8" Name="types" format="ascii" RangeMin="42" RangeMax="42">
          42 42 42 42 42 42
          42 42 42 42 42 42
          42 42 42 42 42 42
          42 42
        </DataArray>
        <DataArray type="Int64" Name="faces" format="ascii" RangeMin="0" RangeMax="345">
          7 3 1 7 6 5
          1 8 9 0 7 5
          1 6 4 5 8 4
          2 3 5 4 4 2
          0 9 3 5 2 4
          6 7 0 4 3 9
          8 5 12 6 11 13
          24 25 28 29 5 11
          15 14 17 13 6 11
          29 10 23 21 15 4
          12 16 19 18 9 12
          20 22 23 10 28 25
          27 16 5 12 18 17
          14 20 6 13 17 18
          19 26 24 5 14 15
          21 22 20 4 16 27
          26 19 3 21 23 22
          4 24 26 27 25 3
          28 10 29 11 7 31
          34 40 42 32 37 36
          7 31 33 39 44 45
          41 34 3 31 36 33
          4 32 42 47 46 4
          32 46 43 37 8 33
          36 37 43 35 30 38
          39 3 34 41 40 4
          35 43 46 47 7 35
          47 42 40 41 45 30
          4 38 30 45 44 3
          38 44 39 9 6 49
          57 48 58 59 53 5
          49 51 50 56 57 6
          49 53 52 60 61 51
          6 50 54 55 58 48
          56 4 50 51 61 54
          5 52 59 58 55 60
          3 52 53 59 4 54
          61 60 55 3 56 48
          57 10 6 63 62 76
          77 67 65 3 63 64
          62 5 63 65 68 66
          64 7 64 66 74 71
          72 76 62 5 65 67
          69 70 68 5 66 68
          70 75 74 7 67 77
          73 71 74 75 69 3
          69 75 70 3 71 73
          72 4 72 73 77 76
          14 9 79 87 86 83
          92 93 80 98 81 5
          79 91 90 82 87 3
          79 81 91 3 80 99
          98 7 80 93 94 89
          85 84 99 7 81 98
          99 84 100 90 91 4
          82 78 86 87 8 82
          90 100 101 96 95 88
          78 5 83 88 95 97
          92 4 83 86 78 88
          4 84 85 101 100 4
          85 89 96 101 5 89
          94 97 95 96 4 92
          97 94 93 12 7 103
          114 115 113 102 111 105
          7 103 104 108 106 121
          119 114 3 103 105 104
          5 104 105 111 109 108
          7 106 112 116 117 118
          120 121 5 106 108 109
          107 112 4 107 110 116
          112 5 107 109 111 102
          110 5 110 102 113 117
          116 4 113 115 118 117
          5 114 119 120 118 115
          3 119 121 120 12 5
          123 139 134 138 130 7
          123 126 133 132 129 136
          139 3 123 130 126 8
          124 127 128 133 126 130
          138 140 5 124 122 131
          125 127 4 124 140 141
          122 4 125 131 137 135
          6 125 135 129 132 128
          127 3 128 132 133 4
          129 135 137 136 7 131
          122 141 134 139 136 137
          4 134 141 140 138 8
          3 143 153 152 5 143
          142 146 149 153 4 143
          152 145 142 4 144 150
          151 148 4 144 149 146
          150 7 144 148 147 145
          152 153 149 6 145 147
          151 150 146 142 3 147
          148 151 11 4 155 157
          165 162 5 155 159 160
          154 157 5 155 162 158
          163 159 5 156 171 170
          163 158 5 156 166 167
          168 171 6 156 158 162
          165 161 166 5 157 154
          169 161 165 4 159 163
          170 160 7 160 170 171
          168 164 169 154 5 161
          169 164 167 166 3 164
          168 167 11 5 173 177
          175 183 188 4 173 182
          185 177 8 173 188 189
          179 178 180 184 182 3
          174 178 179 7 174 176
          181 186 172 180 178 6
          174 179 189 183 175 176
          6 175 177 185 187 181
          176 3 180 172 184 3
          181 187 186 6 182 184
          172 186 187 185 3 183
          189 188 14 5 191 193
          195 202 210 4 191 198
          204 193 8 191 210 211
          194 207 200 199 198 5
          192 190 213 212 209 6
          192 206 205 203 201 190
          7 192 209 208 197 202
          195 206 5 193 204 205
          206 195 7 194 211 197
          208 212 213 196 3 194
          196 207 6 196 213 190
          201 200 207 4 197 211
          210 202 5 198 199 203
          205 204 4 199 200 201
          203 3 208 209 212 9
          5 215 216 221 227 223
          4 215 225 214 216 6
          215 223 222 220 224 225
          6 216 214 217 218 219
          221 4 217 214 225 224
          4 217 224 220 218 5
          218 220 222 226 219 4
          219 226 227 221 4 222
          223 227 226 11 4 229
          233 235 231 6 229 241
          242 243 234 233 5 229
          231 238 240 241 3 230
          245 244 4 230 236 237
          245 6 230 244 243 242
          228 236 4 231 235 239
          238 7 232 237 236 228
          240 238 239 6 232 234
          243 244 245 237 5 232
          239 235 233 234 4 240
          228 242 241 13 5 247
          255 253 246 249 3 247
          252 255 7 247 249 261
          256 251 250 252 6 248
          251 256 260 259 258 8
          248 257 265 267 262 263
          250 251 3 248 258 257
          6 249 246 254 259 260
          261 5 250 263 253 255
          252 7 253 263 262 266
          264 254 246 6 254 264
          265 257 258 259 3 256
          261 260 3 262 267 266
          4 264 266 267 265 8
          5 269 273 275 277 274
          3 269 270 273 6 269
          274 271 279 268 270 6
          270 268 276 272 275 273
          3 271 274 277 6 271
          277 275 272 278 279 3
          272 276 278 4 276 268
          279 278 11 4 281 282
          297 296 5 281 289 285
          283 282 5 281 296 280
          294 289 4 282 283 292
          297 5 283 285 287 293
          292 5 284 291 295 288
          286 4 284 293 287 291
          8 284 286 290 280 296
          297 292 293 6 285 289
          294 295 291 287 3 286
          288 290 5 288 295 294
          280 290 9 5 299 303
          309 304 305 4 299 302
          300 303 6 299 305 306
          307 310 302 7 300 311
          298 301 308 309 303 4
          300 302 310 311 4 301
          298 307 306 5 301 306
          305 304 308 3 304 309
          308 4 307 298 311 310
          12 6 313 323 321 318
          325 324 8 313 319 314
          320 330 328 329 323 4
          313 324 315 319 5 314
          316 322 331 320 4 314
          319 315 316 7 315 324
          325 312 317 322 316 7
          317 327 326 328 330 331
          322 3 317 312 327 5
          318 321 329 328 326 5
          318 326 327 312 325 3
          320 331 330 3 321 323
          329 9 5 333 345 344
          332 335 3 333 334 345
          6 333 335 338 339 337
          334 6 334 337 343 336
          344 345 5 335 332 341
          340 338 3 336 343 342
          5 336 342 341 332 344
          6 337 339 340 341 342
          343 3 338 340 339
        </DataArray>
        <DataArray type="Int64" Name="faceoffsets" format="ascii" RangeMin="38" RangeMax="1271">
          38 111 177 229 288 375
          448 521 566 632 698 785
          837 903 983 1028 1094 1146
          1219 1271
        </DataArray>
      </Cells>
    </Piece>
  </UnstructuredGrid>
</VTKFile>
