<?xml version="1.0"?>
<VTKFile type="UnstructuredGrid" version="0.1" byte_order="LittleEndian" header_type="UInt32" compressor="vtkZLibDataCompressor">
  <UnstructuredGrid>
    <Piece NumberOfPoints="310" NumberOfCells="20">
      <PointData>
      </PointData>
      <CellData>
        <DataArray type="Int32" Name="cellID" format="ascii" RangeMin="0" RangeMax="19">
          0 1 2 3 4 5
          6 7 8 9 10 11
          12 13 14 15 16 17
          18 19
        </DataArray>
        <DataArray type="Float64" Name="cellVolume" format="ascii" RangeMin="0.069714800346" RangeMax="0.881031625">
          0.45132756115 0.881031625 0.60779120546 0.75535215712 0.34930600986 0.73513957946
          0.30886025857 0.70354608117 0.30449480328 0.29027511769 0.1368759193 0.3132447434
          0.44994586324 0.47927292343 0.20331852776 0.20997621045 0.069714800346 0.2356363775
          0.32020079303 0.19468944281
        </DataArray>
        <DataArray type="Int32" Name="cellFaces" format="ascii" RangeMin="6" RangeMax="13">
          7 10 9 11 11 13
          8 10 11 10 8 10
          10 11 7 9 6 13
          12 9
        </DataArray>
        <DataArray type="Float64" Name="cellSurfaceArea" format="ascii" RangeMin="1.4569095832" RangeMax="5.5664005834">
          4.0855456572 5.5664005834 4.3769885965 5.1347314276 3.1055998341 4.8688908588
          3.0170235039 4.9535161784 2.862265778 3.033760527 1.7642046645 3.042583294
          3.7155961895 3.6184619282 2.366162497 2.6353189927 1.4569095832 2.2924521733
          3.0923054823 2.2535170831
        </DataArray>
      </CellData>
      <Points>
        <DataArray type="Float32" Name="Points" NumberOfComponents="3" format="ascii" RangeMin="0.22166995557" RangeMax="1.7320508076">
          -1 -0.36141806841 -1 -1 0.58544790745 -0.26600155234
          -1 1 -1 0.10610245168 0.20868323743 -0.83690351248
          -1 1 -0.32399198413 -0.36781543493 1 -0.68040955067
          -0.10822995752 0.016170376912 -0.68913561106 -0.29337760806 -0.37998357415 -1
          0.16880449653 0.20217098296 -1 -0.25167503953 1 -1
          -0.55390816927 -1 -1 1 -1 -1
          0.54649662971 0.08220346272 -0.52520763874 1 -0.0039501590654 -1
          -0.5312436223 -1 -0.62290692329 1 -0.018759466708 -0.73271799088
          -0.20943318307 -0.28954622149 -0.23560453951 1 -1 -0.38918244839
          0.024053353816 -0.22455368936 -0.13803486526 0.72312313318 -1 -0.24091076851
          0.066869623959 -0.18131054938 -0.17610317469 0.16880449653 0.20217098296 -1
          -0.29337760806 -0.37998357415 -1 -0.10822995752 0.016170376912 -0.68913561106
          0.10610245168 0.20868323743 -0.83690351248 0.24052771926 0.16412128508 -0.63427627087
          -1 -1 -1 -0.55390816927 -1 -1
          -0.10822995752 0.016170376912 -0.68913561106 -1 0.58544790745 -0.26600155234
          -0.40251871943 -0.31892573833 0.023155916482 -0.49034535885 -0.4155241847 0.037854608148
          -0.20943318307 -0.28954622149 -0.23560453951 -1 0.33069711924 0.012956974097
          -0.29337760806 -0.37998357415 -1 -1 -0.36141806841 -1
          -1 -0.25847542286 0.06263871491 -1 -1 -0.57546103001
          -0.6166035533 -1 -0.49244073033 -0.5312436223 -1 -0.62290692329
          0.83474767208 1 0.11303957552 1 -0.0039501590654 -1
          0.16880449653 0.20217098296 -1 1 1 -1
          0.89710402489 0.55808758736 0.12533827126 0.51087909937 1 0.021206444129
          1 -0.018759466708 -0.73271799088 -0.23589004576 1 -0.4214989543
          0.10553472489 0.57121121883 -0.34021863341 0.85177689791 0.67204040289 0.13065691292
          1 0.46531441808 0.10185158998 1 1 0.065070167184
          1 0.32654449344 -0.026155825704 -0.25167503953 1 -1
          0.54649662971 0.08220346272 -0.52520763874 0.24052771926 0.16412128508 -0.63427627087
          0.10610245168 0.20868323743 -0.83690351248 -0.36781543493 1 -0.68040955067
          -0.49034535885 -0.4155241847 0.037854608148 0.62590765953 -1 0.28100594878
          -0.40251871943 -0.31892573833 0.023155916482 0.72312313318 -1 -0.24091076851
          0.024053353816 -0.22455368936 -0.13803486526 -0.46369865537 -1 -0.030224641785
          -0.24313634634 -0.27043053508 0.14729246497 0.17735120654 -1 0.27450987697
          -0.29020798206 -0.43440207839 0.28860878944 0.13950626552 -0.46617004275 0.37947764993
          -0.0050572757609 -0.22157216072 0.0042155375704 -0.057527977973 -0.22532999516 0.13340373337
          -0.20943318307 -0.28954622149 -0.23560453951 -0.43112260103 -0.49273893237 0.19724372029
          -0.022229364142 -0.23174853623 0.14430901408 -0.066124804318 -0.49048605561 0.37169343233
          -0.5312436223 -1 -0.62290692329 -0.6166035533 -1 -0.49244073033
          -1 0.58544790745 -0.26600155234 -0.10822995752 0.016170376912 -0.68913561106
          -1 1 -0.32399198413 -0.36770644784 0.47243443131 0.4776968658
          -1 0.33069711924 0.012956974097 0.10610245168 0.20868323743 -0.83690351248
          -0.72100579739 1 0.28099358082 0.10553472489 0.57121121883 -0.34021863341
          -0.0050572757609 -0.22157216072 0.0042155375704 0.24052771926 0.16412128508 -0.63427627087
          -0.057527977973 -0.22532999516 0.13340373337 0.024053353816 -0.22455368936 -0.13803486526
          -0.20136672258 0.32400262356 0.43610718846 -0.28148943186 0.37844762206 0.4790340364
          -0.36781543493 1 -0.68040955067 -0.23589004576 1 -0.4214989543
          0.066869623959 -0.18131054938 -0.17610317469 -0.24313634634 -0.27043053508 0.14729246497
          -0.40251871943 -0.31892573833 0.023155916482 -0.20943318307 -0.28954622149 -0.23560453951
          -1 1 0.32513737679 -1 0.94716149569 0.35043698549
          -1 -1 -0.57546103001 -0.6166035533 -1 -0.49244073033
          -1 -0.25847542286 0.06263871491 -0.46369865537 -1 -0.030224641785
          -1 -1 1 -0.69112032652 -1 1
          -1 -0.65141302347 1 -1 -0.55191296339 0.87016040087
          -0.65652543306 -0.7880333066 1 -0.59062665701 -0.65873557329 0.79707229137
          -0.49034535885 -0.4155241847 0.037854608148 -0.43112260103 -0.49273893237 0.19724372029
          0.72312313318 -1 -0.24091076851 1 -1 -0.38918244839
          0.024053353816 -0.22455368936 -0.13803486526 1 -0.018759466708 -0.73271799088
          0.29154357314 -0.46118998528 0.5251583457 1 -0.76209801435 0.87117028236
          1 0.32527160645 0.19279612601 0.13950626552 -0.46617004275 0.37947764993
          0.62590765953 -1 0.28100594878 1 -1 0.6268748045
          -0.0050572757609 -0.22157216072 0.0042155375704 0.066869623959 -0.18131054938 -0.17610317469
          0.16355648637 -0.13131268322 0.29076355696 -0.022229364142 -0.23174853623 0.14430901408
          0.54649662971 0.08220346272 -0.52520763874 1 0.32654449344 -0.026155825704
          0.10553472489 0.57121121883 -0.34021863341 0.24052771926 0.16412128508 -0.63427627087
          1 0.34635221958 0.20193307102 1 0.32654449344 -0.026155825704
          0.16355648637 -0.13131268322 0.29076355696 1 0.32527160645 0.19279612601
          -0.057527977973 -0.22532999516 0.13340373337 1 0.46531441808 0.10185158998
          0.57819694281 0.44330078363 0.39315217733 0.89710402489 0.55808758736 0.12533827126
          0.028359724209 0.32893493772 0.53806942701 -0.20136672258 0.32400262356 0.43610718846
          0.54649662971 0.08220346272 -0.52520763874 0.066869623959 -0.18131054938 -0.17610317469
          -0.0050572757609 -0.22157216072 0.0042155375704 -0.022229364142 -0.23174853623 0.14430901408
          0.79553669691 0.5060492754 0.26934203506 0.76616227627 0.46248307824 0.33497986197
          -0.72100579739 1 0.28099358082 0.85177689791 0.67204040289 0.13065691292
          0.028359724209 0.32893493772 0.53806942701 0.10553472489 0.57121121883 -0.34021863341
          0.57819694281 0.44330078363 0.39315217733 0.51087909937 1 0.021206444129
          -0.23589004576 1 -0.4214989543 -0.42787903547 1 0.36296701431
          0.016634607688 0.37858086824 0.60259532928 0.059980861843 0.40362000465 0.6100705266
          0.79553669691 0.5060492754 0.26934203506 0.89710402489 0.55808758736 0.12533827126
          -0.36770644784 0.47243443131 0.4776968658 -0.20136672258 0.32400262356 0.43610718846
          -0.28813284636 0.40441456437 0.51257246733 -0.28148943186 0.37844762206 0.4790340364
          -0.46369865537 -1 -0.030224641785 0.17735120654 -1 0.27450987697
          -0.43112260103 -0.49273893237 0.19724372029 -0.69112032652 -1 1
          -0.50031721592 -1 1 -0.29020798206 -0.43440207839 0.28860878944
          -0.41001570225 -0.56889802217 0.76500993967 -0.57393628359 -0.754352808 1
          -0.65652543306 -0.7880333066 1 -0.066124804318 -0.49048605561 0.37169343233
          -0.41541442275 -0.56329655647 0.74954998493 -0.59062665701 -0.65873557329 0.79707229137
          0.17735120654 -1 0.27450987697 -0.50031721592 -1 1
          0.274382025 -0.50739037991 1 1 -0.76209801435 0.87117028236
          -0.41001570225 -0.56889802217 0.76500993967 1 -1 1
          -0.066124804318 -0.49048605561 0.37169343233 -0.33570927382 -0.57710236311 0.95072841644
          1 -0.76710629463 1 0.13950626552 -0.46617004275 0.37947764993
          1 -1 0.6268748045 0.62590765953 -1 0.28100594878
          -0.57393628359 -0.754352808 1 -0.34554386139 -0.59933447838 1
          0.29154357314 -0.46118998528 0.5251583457 0.3401697576 -0.49937957525 1
          -0.40251871943 -0.31892573833 0.023155916482 -1 0.94716149569 0.35043698549
          -1 -0.25847542286 0.06263871491 -1 -0.55191296339 0.87016040087
          -0.29020798206 -0.43440207839 0.28860878944 -1 0.33069711924 0.012956974097
          -1 0.78668355942 0.71615344286 -0.28148943186 0.37844762206 0.4790340364
          -0.31744083762 0.37624263763 0.62102180719 -0.24313634634 -0.27043053508 0.14729246497
          -0.41541442275 -0.56329655647 0.74954998493 -0.59062665701 -0.65873557329 0.79707229137
          -0.36770644784 0.47243443131 0.4776968658 -0.28813284636 0.40441456437 0.51257246733
          -0.43112260103 -0.49273893237 0.19724372029 -0.49034535885 -0.4155241847 0.037854608148
          0.29154357314 -0.46118998528 0.5251583457 1 -0.76710629463 1
          0.20083141327 0.35050913692 1 1 0.32527160645 0.19279612601
          0.16355648637 -0.13131268322 0.29076355696 1 -0.76209801435 0.87117028236
          0.57819694281 0.44330078363 0.39315217733 0.059980861843 0.40362000465 0.6100705266
          0.3401697576 -0.49937957525 1 0.4780575633 0.52823275328 1
          0.33450248837 -0.48242816329 1 0.4648822546 0.54760676622 0.92435526848
          0.028359724209 0.32893493772 0.53806942701 1 0.22319060564 1
          1 0.34635221958 0.20193307102 0.76616227627 0.46248307824 0.33497986197
          0.016634607688 0.37858086824 0.60259532928 0.040118098259 0.34079352021 0.74627506733
          0.76616227627 0.46248307824 0.33497986197 0.83474767208 1 0.11303957552
          -0.42787903547 1 0.36296701431 0.41016724706 1 0.96252667904
          0.4648822546 0.54760676622 0.92435526848 0.059980861843 0.40362000465 0.6100705266
          0.57819694281 0.44330078363 0.39315217733 0.79553669691 0.5060492754 0.26934203506
          0.85177689791 0.67204040289 0.13065691292 0.51087909937 1 0.021206444129
          -0.31744083762 0.37624263763 0.62102180719 -1 -0.55191296339 0.87016040087
          -1 0.78668355942 0.71615344286 -0.2862688005 0.35364505649 0.70645833015
          -0.59062665701 -0.65873557329 0.79707229137 -0.41541442275 -0.56329655647 0.74954998493
          -1 0.77450209856 1 -0.34473004937 0.37655153871 1
          -0.57393628359 -0.754352808 1 -0.34554386139 -0.59933447838 1
          -0.65652543306 -0.7880333066 1 -1 -0.65141302347 1
          -0.41001570225 -0.56889802217 0.76500993967 -0.33570927382 -0.57710236311 0.95072841644
          0.040118098259 0.34079352021 0.74627506733 0.33450248837 -0.48242816329 1
          -0.2862688005 0.35364505649 0.70645833015 0.20083141327 0.35050913692 1
          -0.34473004937 0.37655153871 1 -0.34554386139 -0.59933447838 1
          -0.33570927382 -0.57710236311 0.95072841644 0.274382025 -0.50739037991 1
          0.29154357314 -0.46118998528 0.5251583457 0.028359724209 0.32893493772 0.53806942701
          -0.20136672258 0.32400262356 0.43610718846 0.3401697576 -0.49937957525 1
          0.33450248837 -0.48242816329 1 0.274382025 -0.50739037991 1
          -0.41541442275 -0.56329655647 0.74954998493 -0.022229364142 -0.23174853623 0.14430901408
          -0.2862688005 0.35364505649 0.70645833015 -0.31744083762 0.37624263763 0.62102180719
          0.16355648637 -0.13131268322 0.29076355696 -0.33570927382 -0.57710236311 0.95072841644
          -0.24313634634 -0.27043053508 0.14729246497 0.040118098259 0.34079352021 0.74627506733
          -0.41001570225 -0.56889802217 0.76500993967 -0.29020798206 -0.43440207839 0.28860878944
          -0.057527977973 -0.22532999516 0.13340373337 -0.28148943186 0.37844762206 0.4790340364
          0.016634607688 0.37858086824 0.60259532928 -0.28813284636 0.40441456437 0.51257246733
          0.13950626552 -0.46617004275 0.37947764993 -0.066124804318 -0.49048605561 0.37169343233
          -1 1 1 -0.2862688005 0.35364505649 0.70645833015
          -0.42787903547 1 0.36296701431 -0.28813284636 0.40441456437 0.51257246733
          0.4648822546 0.54760676622 0.92435526848 0.040118098259 0.34079352021 0.74627506733
          0.20083141327 0.35050913692 1 -1 0.77450209856 1
          0.41016724706 1 0.96252667904 0.41541978717 1 1
          0.4780575633 0.52823275328 1 -0.34473004937 0.37655153871 1
          -0.31744083762 0.37624263763 0.62102180719 -1 0.78668355942 0.71615344286
          -0.72100579739 1 0.28099358082 -1 1 0.32513737679
          0.016634607688 0.37858086824 0.60259532928 0.059980861843 0.40362000465 0.6100705266
          -0.36770644784 0.47243443131 0.4776968658 -1 0.94716149569 0.35043698549
          0.4648822546 0.54760676622 0.92435526848 0.83474767208 1 0.11303957552
          0.41016724706 1 0.96252667904 0.85177689791 0.67204040289 0.13065691292
          0.4780575633 0.52823275328 1 1 0.22319060564 1
          0.41541978717 1 1 1 1 1
          0.89710402489 0.55808758736 0.12533827126 1 1 0.065070167184
          1 0.34635221958 0.20193307102 1 0.46531441808 0.10185158998
          0.76616227627 0.46248307824 0.33497986197 0.79553669691 0.5060492754 0.26934203506
        </DataArray>
      </Points>
      <Cells>
        <DataArray type="Int64" Name="connectivity" format="ascii" RangeMin="0" RangeMax="309">
          0 1 2 3 4 5
          6 7 8 9 10 11
          12 13 14 15 16 17
          18 19 20 21 22 23
          24 25 26 27 28 29
          30 31 32 33 34 35
          36 37 38 39 40 41
          42 43 44 45 46 47
          48 49 50 51 52 53
          54 55 56 57 58 59
          60 61 62 63 64 65
          66 67 68 69 70 71
          72 73 74 75 76 77
          78 79 80 81 82 83
          84 85 86 87 88 89
          90 91 92 93 94 95
          96 97 98 99 100 101
          102 103 104 105 106 107
          108 109 110 111 112 113
          114 115 116 117 118 119
          120 121 122 123 124 125
          126 127 128 129 130 131
          132 133 134 135 136 137
          138 139 140 141 142 143
          144 145 146 147 148 149
          150 151 152 153 154 155
          156 157 158 159 160 161
          162 163 164 165 166 167
          168 169 170 171 172 173
          174 175 176 177 178 179
          180 181 182 183 184 185
          186 187 188 189 190 191
          192 193 194 195 196 197
          198 199 200 201 202 203
          204 205 206 207 208 209
          210 211 212 213 214 215
          216 217 218 219 220 221
          222 223 224 225 226 227
          228 229 230 231 232 233
          234 235 236 237 238 239
          240 241 242 243 244 245
          246 247 248 249 250 251
          252 253 254 255 256 257
          258 259 260 261 262 263
          264 265 266 267 268 269
          270 271 272 273 274 275
          276 277 278 279 280 281
          282 283 284 285 286 287
          288 289 290 291 292 293
          294 295 296 297 298 299
          300 301 302 303 304 305
          306 307 308 309
        </DataArray>
        <DataArray type="Int64" Name="offsets" format="ascii" RangeMin="10" RangeMax="310">
          10 26 40 58 76 98
          110 126 144 160 172 188
          204 222 232 246 254 276
          296 310
        </DataArray>
        <DataArray type="UInt8" Name="types" format="ascii" RangeMin="42" RangeMax="42">
          42 42 42 42 42 42
          42 42 42 42 42 42
          42 42 42 42 42 42
          42 42
        </DataArray>
        <DataArray type="Int64" Name="faces" format="ascii" RangeMin="0" RangeMax="309">
          7 5 1 4 5 3
          6 4 1 0 2 4
          4 1 6 7 0 5
          2 0 7 8 9 4
          2 9 5 4 4 3
          5 9 8 4 3 8
          7 6 10 5 11 13
          21 22 10 4 11 17
          15 13 5 11 10 14
          19 17 6 12 25 24
          21 13 15 3 12 20
          25 6 12 15 17 19
          18 20 5 14 10 22
          23 16 4 14 16 18
          19 6 16 23 24 25
          20 18 4 21 24 23
          22 9 5 27 39 32
          28 34 5 27 26 37
          38 39 4 27 34 35
          26 4 28 29 35 34
          5 28 32 30 33 29
          6 29 33 36 37 26
          35 5 30 32 39 38
          31 4 30 31 36 33
          4 31 38 37 36 11
          6 41 42 56 55 54
          46 4 41 43 53 42
          6 41 46 52 50 51
          43 4 42 53 57 56
          7 43 51 40 45 47
          57 53 5 44 49 40
          51 50 5 44 48 47
          45 49 6 44 50 52
          54 55 48 3 45 40
          49 3 46 54 52 5
          47 48 55 56 57 11
          6 59 67 72 68 62
          61 4 59 65 73 67
          6 59 61 74 75 63
          65 5 60 58 75 74
          70 5 60 64 66 71
          58 6 60 70 62 68
          69 64 4 61 62 70
          74 4 63 75 58 71
          5 63 71 66 73 65
          6 64 69 72 67 73
          66 3 68 72 69 13
          5 77 81 90 78 76
          6 77 95 87 92 85
          81 5 77 76 80 94
          95 5 78 96 97 80
          76 5 78 90 91 82
          96 4 79 97 96 82
          6 79 89 93 94 80
          97 6 79 82 91 83
          88 89 5 81 85 83
          91 90 6 83 85 92
          84 86 88 6 84 87
          95 94 93 86 3 84
          92 87 4 86 93 89
          88 8 4 99 101 109
          108 5 99 98 102 103
          101 4 99 108 100 98
          5 100 105 104 102 98
          5 100 108 109 107 105
          5 101 103 106 107 109
          4 102 104 106 103 4
          104 105 107 106 10 6
          111 113 124 121 112 110
          6 111 119 115 116 125
          113 4 111 110 118 119
          3 112 121 120 6 112
          120 123 117 118 110 3
          113 125 124 4 114 117
          123 122 5 114 115 119
          118 117 4 114 122 116
          115 7 116 122 123 120
          121 124 125 11 3 127
          139 138 6 127 126 137
          132 140 139 6 127 138
          129 133 135 126 5 128
          143 142 135 133 6 128
          131 130 136 134 143 4
          128 133 129 131 7 129
          138 139 140 141 130 131
          5 130 141 132 137 136
          3 132 141 140 3 134
          142 143 6 134 136 137
          126 135 142 10 3 145
          155 154 5 145 149 150
          147 155 6 145 154 148
          153 151 149 5 146 157
          159 158 152 6 146 148
          154 155 147 157 4 146
          152 153 148 6 147 150
          144 156 159 157 4 149
          151 144 150 6 151 153
          152 158 156 144 3 156
          158 159 8 5 161 169
          165 162 160 5 161 164
          167 166 169 4 161 160
          163 164 4 162 165 170
          171 5 162 171 168 163
          160 4 163 168 167 164
          4 165 169 166 170 5
          166 167 168 171 170 10
          5 173 172 178 176 184
          5 173 177 182 183 172
          7 173 184 185 174 187
          180 177 7 174 179 176
          178 181 186 187 3 174
          185 179 4 175 180 187
          186 4 175 182 177 180
          5 175 186 181 183 182
          4 176 179 185 184 4
          178 172 183 181 10 6
          189 193 188 197 195 200
          5 189 194 191 190 193
          5 189 200 201 196 194
          4 190 203 188 193 5
          190 191 199 202 203 5
          191 194 196 198 199 5
          192 197 188 203 202 6
          192 198 196 201 195 197
          4 192 202 199 198 3
          195 201 200 11 4 205
          209 204 212 5 205 217
          218 207 209 6 205 212
          214 206 213 217 6 206
          221 220 211 215 213 3
          206 214 221 6 207 218
          219 210 216 208 4 207
          208 204 209 7 208 216
          220 221 214 212 204 4
          210 219 215 211 4 210
          211 220 216 5 213 215
          219 218 217 7 3 223
          231 230 4 223 225 224
          231 6 223 230 229 222
          226 225 4 224 225 226
          227 6 224 227 228 229
          230 231 4 226 222 228
          227 3 228 222 229 9
          4 233 243 242 236 4
          233 234 238 243 5 233
          236 237 232 234 5 234
          232 235 239 238 4 235
          245 241 239 5 235 232
          237 244 245 5 236 242
          240 244 237 6 238 239
          241 240 242 243 4 240
          241 245 244 6 3 247
          249 246 5 247 253 251
          250 249 5 247 246 248
          252 253 4 248 246 249
          250 4 248 250 251 252
          3 251 253 252 13 5
          255 272 273 271 256 7
          255 264 254 257 258 267
          272 5 255 256 270 261
          264 4 256 271 266 270
          7 257 254 274 275 268
          265 259 3 257 259 258
          5 258 259 265 262 267
          4 260 268 275 269 5
          260 263 262 265 268 6
          260 269 266 271 273 263
          6 261 270 266 269 275
          274 4 261 274 254 264
          5 262 263 273 272 267
          12 5 277 288 289 283
          287 5 277 281 292 279
          288 4 277 287 282 281
          6 278 290 294 279 292
          293 6 278 284 285 276
          291 290 4 278 293 280
          284 5 279 294 295 289
          288 6 280 293 292 281
          282 286 4 280 286 285
          284 6 282 287 283 276
          285 286 5 283 289 295
          291 276 4 290 291 295
          294 9 5 297 299 304
          307 305 6 297 298 296
          308 309 299 5 297 305
          303 302 298 4 298 302
          300 296 3 299 309 304
          5 300 301 306 308 296
          4 300 302 303 301 5
          301 303 305 307 306 5
          304 309 308 306 307
        </DataArray>
        <DataArray type="Int64" Name="faceoffsets" format="ascii" RangeMin="38" RangeMax="1145">
          38 97 149 215 281 361
          406 465 531 590 635 694
          753 819 857 909 940 1020
          1093 1145
        </DataArray>
      </Cells>
    </Piece>
  </UnstructuredGrid>
</VTKFile>
