<?xml version="1.0"?>
<VTKFile type="UnstructuredGrid" version="0.1" byte_order="LittleEndian" header_type="UInt32" compressor="vtkZLibDataCompressor">
  <UnstructuredGrid>
    <Piece NumberOfPoints="354" NumberOfCells="20">
      <PointData>
      </PointData>
      <CellData>
        <DataArray type="Int32" Name="cellID" format="ascii" RangeMin="0" RangeMax="19">
          0 1 2 3 4 5
          6 7 8 9 10 11
          12 13 14 15 16 17
          18 19
        </DataArray>
        <DataArray type="Float64" Name="cellVolume" format="ascii" RangeMin="0.1283491788" RangeMax="0.79728907303">
          0.21086353378 0.22166395435 0.14222941012 0.56765109919 0.31329578266 0.35970020671
          0.17173127847 0.1283491788 0.67420634314 0.32275870975 0.21265653741 0.3122464628
          0.66613456601 0.79728907303 0.71314238297 0.52873634642 0.54622962441 0.41561932014
          0.4095118333 0.28598435653
        </DataArray>
        <DataArray type="Int32" Name="cellFaces" format="ascii" RangeMin="7" RangeMax="15">
          9 10 7 11 10 12
          13 10 13 13 9 15
          11 13 12 13 12 7
          9 8
        </DataArray>
        <DataArray type="Float64" Name="cellSurfaceArea" format="ascii" RangeMin="1.8631506267" RangeMax="6.1699356532">
          2.5153444611 2.633230399 2.0918034657 4.2256770701 3.0545980092 3.2259702847
          2.089633857 1.8631506267 4.706584139 2.908189262 2.517484353 2.8705892912
          4.9867788719 6.1699356532 4.8620700969 4.0276881425 4.1821282546 3.7762458965
          3.8612522101 3.0179128701
        </DataArray>
      </CellData>
      <Points>
        <DataArray type="Float32" Name="Points" NumberOfComponents="3" format="ascii" RangeMin="0.28220730073" RangeMax="1.7320508076">
          0.23870779574 0.56680142879 -0.67329657078 0.64826530218 0.055751372129 -0.60474479198
          0.78549236059 0.65154969692 -0.32288116217 0.66068452597 1 -1
          0.81787854433 1 -0.35458397865 0.018862683326 0.043160073459 -1
          0.040416430682 0.80499666929 -1 0.036102119833 -0.047843299806 -1
          0.074049763381 -0.11401300132 -1 0.54161196947 -0.034491404891 -1
          0.063161887228 0.74879699945 -0.81775319576 0.13714759052 1 -1
          0.064633391798 0.91863131523 -0.8427169919 0.10240574926 1 -0.83004450798
          0.54161196947 -0.034491404891 -1 1 0.10759902 -0.22393336892
          0.66068452597 1 -1 1 1 -1
          1 -0.0991082564 -1 1 0.2443536669 -0.15235842764
          0.98397898674 1 -0.17744587362 0.95128446817 0.60437005758 -0.13710296154
          0.81787854433 1 -0.35458397865 0.78549236059 0.65154969692 -0.32288116217
          0.93323498964 0.10778757185 -0.25856044888 0.64826530218 0.055751372129 -0.60474479198
          1 0.37501290441 -0.12599523365 1 0.77238595486 -0.11709036678
          1 0.83146095276 -0.12832064927 1 1 -0.17881542444
          -0.021058890969 1 -0.66377305984 -1 0.72074317932 -0.4584748745
          -1 1 -1 -1 0.36477833986 -1
          0.13714759052 1 -1 0.10240574926 1 -0.83004450798
          -0.47114056349 1 -0.37406283617 -1 1 -0.36066102982
          0.064633391798 0.91863131523 -0.8427169919 0.040416430682 0.80499666929 -1
          -1 -1 -1 -0.25787296891 -0.21059133112 -0.34731960297
          -1 -0.57410883904 -1 -0.26100760698 -0.2101752162 -0.34910175204
          -0.052300840616 -0.21538631618 -1 0.59633970261 -1 -1
          -0.25514885783 -1 -0.12626735866 -0.044975984842 -0.20433594286 -0.93284624815
          0.65060293674 -0.95929098129 -0.64131772518 0.67739206553 -1 -0.66932535172
          0.037277244031 -0.44121974707 -0.12625576556 0.086325883865 -0.44271215796 -0.15527372062
          0.0042099533603 -0.23167143762 -0.4789763689 0.046913154423 -0.22834055126 -0.63892167807
          -1 -1 -0.63099825382 -0.86411553621 -1 -0.45000204444
          -0.98851275444 -0.55644905567 -1 -0.29360386729 -0.223741889 -0.3626562655
          0.20539657772 -0.13375489414 -0.47158569098 0.65060293674 -0.95929098129 -0.64131772518
          1 -1 -0.52619773149 0.36334770918 -0.51944124699 0.12518502772
          0.086325883865 -0.44271215796 -0.15527372062 1 -1 -0.12304913998
          0.72392046452 -1 -0.62696266174 1 0.064642384648 -0.20178177953
          0.63826614618 -0.0024666830432 -0.3542586565 0.0042099533603 -0.23167143762 -0.4789763689
          0.16472671926 -0.16472795606 -0.5765375495 0.046913154423 -0.22834055126 -0.63892167807
          1 -0.58596253395 0.2683070004 1 -0.24621529877 0.19537077844
          0.71290868521 -0.6995716691 0.23459678888 1 -0.88131046295 0.22526566684
          0.023082749918 -0.13661406934 -1 1 -1 -1
          0.63826614618 -0.0024666830432 -0.3542586565 0.93323498964 0.10778757185 -0.25856044888
          1 -1 -0.52619773149 0.54161196947 -0.034491404891 -1
          0.72392046452 -1 -0.62696266174 1 0.064642384648 -0.20178177953
          -0.044975984842 -0.20433594286 -0.93284624815 0.59633970261 -1 -1
          0.046913154423 -0.22834055126 -0.63892167807 0.16472671926 -0.16472795606 -0.5765375495
          0.65060293674 -0.95929098129 -0.64131772518 0.67739206553 -1 -0.66932535172
          1 0.10759902 -0.22393336892 1 -0.0991082564 -1
          0.074049763381 -0.11401300132 -1 0.64826530218 0.055751372129 -0.60474479198
          -0.013580296189 -0.16223721206 -1 -0.052300840616 -0.21538631618 -1
          -0.11344476044 0.30944725871 0.045689515769 -0.044975984842 -0.20433594286 -0.93284624815
          -0.029322104529 0.27985259891 0.021533640102 -0.20675927401 0.50428241491 -0.19007314742
          0.018862683326 0.043160073459 -1 0.063161887228 0.74879699945 -0.81775319576
          0.35002702475 0.21620312333 -0.2005302161 0.20539657772 -0.13375489414 -0.47158569098
          0.23870779574 0.56680142879 -0.67329657078 0.036102119833 -0.047843299806 -1
          0.023082749918 -0.13661406934 -1 -0.013580296189 -0.16223721206 -1
          0.16472671926 -0.16472795606 -0.5765375495 0.0042099533603 -0.23167143762 -0.4789763689
          -0.28254881501 0.055433567613 -0.083940476179 -0.1245245859 0.26698854566 0.049851730466
          -0.26687508821 -0.1911855191 -0.32503947616 0.046913154423 -0.22834055126 -0.63892167807
          -0.25787296891 -0.21059133112 -0.34731960297 -0.26100760698 -0.2101752162 -0.34910175204
          -0.30405277014 0.057805951685 -0.11742304265 -0.27064308524 -0.17466835678 -0.30773431063
          0.35002702475 0.21620312333 -0.2005302161 0.64826530218 0.055751372129 -0.60474479198
          0.23870779574 0.56680142879 -0.67329657078 0.63826614618 -0.0024666830432 -0.3542586565
          1 0.28561395407 -0.12110518664 0.93323498964 0.10778757185 -0.25856044888
          1 0.2443536669 -0.15235842764 0.036102119833 -0.047843299806 -1
          0.78549236059 0.65154969692 -0.32288116217 0.60070443153 0.32043397427 -0.11122407764
          1 0.37501290441 -0.12599523365 0.95128446817 0.60437005758 -0.13710296154
          0.20539657772 -0.13375489414 -0.47158569098 0.074049763381 -0.11401300132 -1
          0.16472671926 -0.16472795606 -0.5765375495 0.023082749918 -0.13661406934 -1
          -0.30405277014 0.057805951685 -0.11742304265 0.063161887228 0.74879699945 -0.81775319576
          -0.021058890969 1 -0.66377305984 -0.18775695562 1 -0.29543551803
          -1 0.19165235758 -0.34039187431 -1 -0.5501011014 -1
          -0.47114056349 1 -0.37406283617 -0.052300840616 -0.21538631618 -1
          -1 0.36477833986 -1 -1 0.72074317932 -0.4584748745
          0.064633391798 0.91863131523 -0.8427169919 -0.20675927401 0.50428241491 -0.19007314742
          0.018862683326 0.043160073459 -1 0.040416430682 0.80499666929 -1
          -0.044975984842 -0.20433594286 -0.93284624815 -0.27064308524 -0.17466835678 -0.30773431063
          -0.26687508821 -0.1911855191 -0.32503947616 -0.2700009048 -0.18363130093 -0.31538909674
          -0.26100760698 -0.2101752162 -0.34910175204 -0.013580296189 -0.16223721206 -1
          -0.29360386729 -0.223741889 -0.3626562655 -0.98851275444 -0.55644905567 -1
          0.81787854433 1 -0.35458397865 0.23870779574 0.56680142879 -0.67329657078
          -0.20675927401 0.50428241491 -0.19007314742 0.95128446817 0.60437005758 -0.13710296154
          -0.18775695562 1 -0.29543551803 0.35002702475 0.21620312333 -0.2005302161
          0.78549236059 0.65154969692 -0.32288116217 1 0.83146095276 -0.12832064927
          0.10240574926 1 -0.83004450798 0.063161887228 0.74879699945 -0.81775319576
          1 0.77238595486 -0.11709036678 1 0.78991246223 -0.11387183517
          0.60070443153 0.32043397427 -0.11122407764 -0.029322104529 0.27985259891 0.021533640102
          -0.11344476044 0.30944725871 0.045689515769 0.025060808286 1 0.1149648428
          0.064633391798 0.91863131523 -0.8427169919 -0.021058890969 1 -0.66377305984
          0.027803275734 0.95572608709 0.13293646276 0.074038639665 1 0.13077732921
          0.98397898674 1 -0.17744587362 0.69788080454 1 -0.0080563649535
          -0.25514885783 -1 -0.12626735866 1 -1 -0.12304913998
          0.193496719 -0.5007237196 0.13752138615 0.65060293674 -0.95929098129 -0.64131772518
          1 -1 0.26304277778 0.16084265709 -1 0.45939543843
          0.36334770918 -0.51944124699 0.12518502772 0.22636641562 -0.74292165041 0.36223945022
          0.72392046452 -1 -0.62696266174 0.67739206553 -1 -0.66932535172
          0.086325883865 -0.44271215796 -0.15527372062 0.037277244031 -0.44121974707 -0.12625576556
          1 -0.88131046295 0.22526566684 0.71290868521 -0.6995716691 0.23459678888
          -0.21964128315 0.067893572152 0.30658853054 0.086325883865 -0.44271215796 -0.15527372062
          0.60070443153 0.32043397427 -0.11122407764 1 -0.031695187092 0.26810473204
          0.193496719 -0.5007237196 0.13752138615 1 -0.24621529877 0.19537077844
          -0.26687508821 -0.1911855191 -0.32503947616 1 0.28561395407 -0.12110518664
          0.20539657772 -0.13375489414 -0.47158569098 1 0.064642384648 -0.20178177953
          0.93323498964 0.10778757185 -0.25856044888 0.63826614618 -0.0024666830432 -0.3542586565
          0.35002702475 0.21620312333 -0.2005302161 -0.029322104529 0.27985259891 0.021533640102
          0.0042099533603 -0.23167143762 -0.4789763689 0.36334770918 -0.51944124699 0.12518502772
          0.037277244031 -0.44121974707 -0.12625576556 -0.25787296891 -0.21059133112 -0.34731960297
          -0.28254881501 0.055433567613 -0.083940476179 -0.1245245859 0.26698854566 0.049851730466
          1 0.2443536669 -0.15235842764 1 0.10759902 -0.22393336892
          -0.27064308524 -0.17466835678 -0.30773431063 -0.2700009048 -0.18363130093 -0.31538909674
          -0.20570503175 0.019914833829 0.32812467217 -0.20930232108 0.042797174305 0.33600991964
          -1 -1 0.53863549232 0.22636641562 -0.74292165041 0.36223945022
          -1 -0.91549652815 1 -0.42997092009 -0.15587975085 1
          -1 -1 1 0.16084265709 -1 0.45939543843
          -0.26687508821 -0.1911855191 -0.32503947616 -0.20570503175 0.019914833829 0.32812467217
          0.193496719 -0.5007237196 0.13752138615 -0.86411553621 -1 -0.45000204444
          -0.29523101449 -0.38494691253 1 -0.2677243948 -1 1
          0.037277244031 -0.44121974707 -0.12625576556 -0.25514885783 -1 -0.12626735866
          -0.25787296891 -0.21059133112 -0.34731960297 -0.2700009048 -0.18363130093 -0.31538909674
          -0.26100760698 -0.2101752162 -0.34910175204 -0.29360386729 -0.223741889 -0.3626562655
          -1 -1 -0.63099825382 -0.98851275444 -0.55644905567 -1
          -1 0.19165235758 -0.34039187431 -1 -0.5501011014 -1
          -1 -1 0.53863549232 -1 -0.91549652815 1
          -1 0.2805301249 1 -0.20570503175 0.019914833829 0.32812467217
          -0.42997092009 -0.15587975085 1 -1 -0.57410883904 -1
          -0.2700009048 -0.18363130093 -0.31538909674 -0.28254881501 0.055433567613 -0.083940476179
          -0.29360386729 -0.223741889 -0.3626562655 -0.86411553621 -1 -0.45000204444
          -0.23579710722 0.078139312565 0.40907204151 -0.85213196278 0.24895051122 1
          -0.27064308524 -0.17466835678 -0.30773431063 -0.30405277014 0.057805951685 -0.11742304265
          -0.20930232108 0.042797174305 0.33600991964 -0.21964128315 0.067893572152 0.30658853054
          -0.43688324094 0.022753532976 1 -0.35172098875 0.12489815801 0.74088174105
          -1 0.19165235758 -0.34039187431 -0.20675927401 0.50428241491 -0.19007314742
          -0.47114056349 1 -0.37406283617 -0.18775695562 1 -0.29543551803
          -1 0.2805301249 1 0.025060808286 1 0.1149648428
          -1 0.45773738623 1 -1 1 0.75878846645
          -1 0.72074317932 -0.4584748745 -1 1 -0.36066102982
          -0.85213196278 0.24895051122 1 -0.1245245859 0.26698854566 0.049851730466
          -0.35172098875 0.12489815801 0.74088174105 -0.30405277014 0.057805951685 -0.11742304265
          -0.11344476044 0.30944725871 0.045689515769 0.027803275734 0.95572608709 0.13293646276
          -0.21964128315 0.067893572152 0.30658853054 -0.28254881501 0.055433567613 -0.083940476179
          -0.23579710722 0.078139312565 0.40907204151 -0.2518094182 0.19147454202 0.64851415157
          -0.23579710722 0.078139312565 0.40907204151 1 -0.031695187092 0.26810473204
          1 0.78991246223 -0.11387183517 1 0.77238595486 -0.11709036678
          0.36503282189 0.40641227365 1 1 0.12617863715 0.6033077836
          0.34497407079 1 0.38071194291 0.43724024296 0.33279517293 1
          1 0.28561395407 -0.12110518664 0.074038639665 1 0.13077732921
          -0.11344476044 0.30944725871 0.045689515769 0.69788080454 1 -0.0080563649535
          0.60070443153 0.32043397427 -0.11122407764 -0.029322104529 0.27985259891 0.021533640102
          0.027803275734 0.95572608709 0.13293646276 -0.1245245859 0.26698854566 0.049851730466
          -0.21964128315 0.067893572152 0.30658853054 -0.20930232108 0.042797174305 0.33600991964
          -0.2518094182 0.19147454202 0.64851415157 0.28994357586 0.33797308803 1
          1 0.37501290441 -0.12599523365 0.95128446817 0.60437005758 -0.13710296154
          0.193496719 -0.5007237196 0.13752138615 0.36334770918 -0.51944124699 0.12518502772
          1 -0.031695187092 0.26810473204 -0.42997092009 -0.15587975085 1
          -0.29523101449 -0.38494691253 1 1 0.0048126457259 1
          -0.43688324094 0.022753532976 1 1 0.060880240053 1
          1 -0.24621529877 0.19537077844 1 -0.58596253395 0.2683070004
          0.71290868521 -0.6995716691 0.23459678888 0.22636641562 -0.74292165041 0.36223945022
          -0.20930232108 0.042797174305 0.33600991964 -0.20570503175 0.019914833829 0.32812467217
          -0.23579710722 0.078139312565 0.40907204151 0.28994357586 0.33797308803 1
          1 0.12617863715 0.6033077836 0.43724024296 0.33279517293 1
          -0.2518094182 0.19147454202 0.64851415157 -0.35172098875 0.12489815801 0.74088174105
          -0.29523101449 -0.38494691253 1 1 -1 0.26304277778
          0.16084265709 -1 0.45939543843 1 0.0048126457259 1
          -0.2677243948 -1 1 1 -1 1
          0.22636641562 -0.74292165041 0.36223945022 1 -0.88131046295 0.22526566684
          0.71290868521 -0.6995716691 0.23459678888 1 -0.58596253395 0.2683070004
          -0.2518094182 0.19147454202 0.64851415157 0.074038639665 1 0.13077732921
          0.34497407079 1 0.38071194291 -1 1 0.75878846645
          -1 0.45773738623 1 0.36503282189 0.40641227365 1
          -1 1 1 0.41467565298 1 1
          0.28994357586 0.33797308803 1 -0.85213196278 0.24895051122 1
          0.027803275734 0.95572608709 0.13293646276 0.025060808286 1 0.1149648428
          -0.35172098875 0.12489815801 0.74088174105 -0.43688324094 0.022753532976 1
          0.34497407079 1 0.38071194291 0.69788080454 1 -0.0080563649535
          1 0.060880240053 1 1 1 1
          0.43724024296 0.33279517293 1 1 0.12617863715 0.6033077836
          0.36503282189 0.40641227365 1 0.41467565298 1 1
          0.98397898674 1 -0.17744587362 1 1 -0.17881542444
          1 0.83146095276 -0.12832064927 1 0.78991246223 -0.11387183517
        </DataArray>
      </Points>
      <Cells>
        <DataArray type="Int64" Name="connectivity" format="ascii" RangeMin="0" RangeMax="353">
          0 1 2 3 4 5
          6 7 8 9 10 11
          12 13 14 15 16 17
          18 19 20 21 22 23
          24 25 26 27 28 29
          30 31 32 33 34 35
          36 37 38 39 40 41
          42 43 44 45 46 47
          48 49 50 51 52 53
          54 55 56 57 58 59
          60 61 62 63 64 65
          66 67 68 69 70 71
          72 73 74 75 76 77
          78 79 80 81 82 83
          84 85 86 87 88 89
          90 91 92 93 94 95
          96 97 98 99 100 101
          102 103 104 105 106 107
          108 109 110 111 112 113
          114 115 116 117 118 119
          120 121 122 123 124 125
          126 127 128 129 130 131
          132 133 134 135 136 137
          138 139 140 141 142 143
          144 145 146 147 148 149
          150 151 152 153 154 155
          156 157 158 159 160 161
          162 163 164 165 166 167
          168 169 170 171 172 173
          174 175 176 177 178 179
          180 181 182 183 184 185
          186 187 188 189 190 191
          192 193 194 195 196 197
          198 199 200 201 202 203
          204 205 206 207 208 209
          210 211 212 213 214 215
          216 217 218 219 220 221
          222 223 224 225 226 227
          228 229 230 231 232 233
          234 235 236 237 238 239
          240 241 242 243 244 245
          246 247 248 249 250 251
          252 253 254 255 256 257
          258 259 260 261 262 263
          264 265 266 267 268 269
          270 271 272 273 274 275
          276 277 278 279 280 281
          282 283 284 285 286 287
          288 289 290 291 292 293
          294 295 296 297 298 299
          300 301 302 303 304 305
          306 307 308 309 310 311
          312 313 314 315 316 317
          318 319 320 321 322 323
          324 325 326 327 328 329
          330 331 332 333 334 335
          336 337 338 339 340 341
          342 343 344 345 346 347
          348 349 350 351 352 353
        </DataArray>
        <DataArray type="Int64" Name="offsets" format="ascii" RangeMin="14" RangeMax="354">
          14 30 40 58 74 94
          116 132 154 176 190 216
          234 256 276 298 318 328
          342 354
        </DataArray>
        <DataArray type="UInt8" Name="types" format="ascii" RangeMin="42" RangeMax="42">
          42 42 42 42 42 42
          42 42 42 42 42 42
          42 42 42 42 42 42
          42 42
        </DataArray>
        <DataArray type="Int64" Name="faces" format="ascii" RangeMin="0" RangeMax="353">
          9 3 1 9 8 5
          1 2 4 3 9 5
          1 8 7 0 2 6
          2 0 10 12 13 4
          7 3 11 6 5 7
          8 9 4 3 4 13
          11 4 5 6 12 10
          4 5 10 0 7 4
          6 11 13 12 10 3
          15 24 19 5 15 18
          14 25 24 8 15 19
          26 27 28 29 17 18
          5 16 22 23 25 14
          5 16 17 29 20 22
          4 16 14 18 17 6
          19 24 25 23 21 26
          3 20 29 28 6 20
          28 27 21 23 22 3
          21 27 26 7 3 31
          37 36 4 31 33 32
          37 6 31 36 30 38
          39 33 4 32 33 39
          34 6 32 34 35 30
          36 37 4 34 39 38
          35 3 35 38 30 11
          5 41 43 47 53 52
          6 41 50 46 55 57
          43 4 41 52 51 50
          5 42 56 57 55 54
          5 42 40 45 44 56
          3 42 54 40 5 43
          57 56 44 47 6 44
          45 49 48 53 47 6
          45 40 54 55 46 49
          5 46 50 51 48 49
          4 48 51 52 53 10
          7 59 62 61 72 73
          63 64 4 59 69 67
          62 7 59 64 60 65
          66 68 69 6 60 63
          73 70 71 65 3 60
          64 63 4 61 71 70
          72 7 61 62 67 58
          66 65 71 3 66 58
          68 4 67 69 68 58
          3 70 73 72 12 8
          75 89 79 90 74 92
          93 83 5 75 78 81
          88 89 5 75 83 87
          80 78 6 76 85 74
          90 91 77 7 76 81
          78 80 86 84 85 4
          76 77 88 81 5 77
          91 79 89 88 3 79
          91 90 3 80 87 86
          3 82 93 92 6 82
          84 86 87 83 93 5
          82 92 74 85 84 13
          5 95 113 112 107 111
          9 95 105 98 99 97
          114 115 110 113 5 95
          111 106 104 105 3 96
          109 94 9 96 100 101
          107 112 110 115 108 109
          6 96 94 97 99 102
          100 5 97 94 109 108
          114 4 98 103 102 99
          4 98 105 104 103 6
          100 102 103 104 106 101
          4 101 106 111 107 3
          108 115 114 3 110 112
          113 10 6 117 129 131
          130 119 121 5 117 124
          118 123 129 6 117 121
          122 126 127 124 6 118
          116 128 130 131 123 5
          118 124 127 125 116 7
          119 128 116 125 120 122
          121 3 119 130 128 4
          120 125 127 126 3 120
          126 122 3 123 131 129
          13 4 133 142 145 144
          5 133 143 135 134 142
          9 133 144 151 146 150
          148 147 132 143 6 134
          138 141 140 145 142 3
          134 135 138 6 135 143
          132 136 141 138 7 136
          132 147 149 152 153 137
          4 136 137 140 141 7
          137 153 139 151 144 145
          140 5 139 153 152 150
          146 3 139 146 151 3
          147 148 149 4 148 150
          152 149 13 6 155 160
          154 162 170 163 5 155
          159 166 157 160 6 155
          163 156 168 167 159 5
          156 158 169 172 168 5
          156 163 170 171 158 6
          157 164 161 174 154 160
          9 157 166 167 168 172
          173 175 165 164 8 158
          171 162 154 174 175 173
          169 3 159 167 166 4
          161 165 175 174 3 161
          164 165 3 162 171 170
          3 169 173 172 9 7
          177 188 189 182 186 179
          184 3 177 180 188 6
          177 184 185 176 181 180
          4 178 182 189 183 4
          178 187 186 182 5 178
          183 181 176 187 3 179
          185 184 5 179 186 187
          176 185 5 180 181 183
          189 188 15 4 191 204
          207 206 7 191 205 195
          199 201 198 204 4 191
          206 194 205 3 192 203
          202 7 192 197 193 215
          190 209 203 7 192 202
          198 201 200 210 197 6
          193 195 205 194 214 215
          6 193 197 210 211 199
          195 6 194 206 207 196
          213 214 3 196 212 213
          9 196 207 204 198 202
          203 209 208 212 4 199
          211 200 201 3 200 211
          210 6 208 190 215 214
          213 212 3 208 209 190
          11 4 217 221 227 226
          5 217 224 228 229 221
          5 217 226 219 223 224
          7 218 216 225 233 231
          223 219 3 218 220 216
          5 218 219 226 227 220
          6 220 227 221 229 225
          216 4 222 231 233 232
          6 222 230 228 224 223
          231 3 222 232 230 6
          225 229 228 230 232 233
          13 5 235 243 234 247
          246 3 235 237 243 7
          235 246 244 250 251 236
          237 7 236 240 239 238
          234 243 237 8 236 251
          245 253 248 255 249 240
          7 238 239 242 241 244
          246 247 3 238 247 234
          5 239 240 249 254 242
          6 241 242 254 255 248
          252 6 241 252 253 245
          250 244 3 245 251 250
          3 248 253 252 3 249
          255 254 12 5 257 269
          273 267 270 6 257 259
          258 264 256 269 5 257
          270 271 261 259 3 258
          265 264 5 258 259 261
          263 265 8 260 266 268
          274 272 273 269 256 3
          260 262 266 6 260 256
          264 265 263 262 7 261
          271 275 268 266 262 263
          3 267 273 272 6 267
          272 274 275 271 270 3
          268 275 274 13 7 277
          284 288 289 291 292 293
          6 277 281 278 279 296
          284 7 277 293 276 294
          295 283 281 9 278 287
          285 290 286 289 288 297
          279 6 278 281 283 280
          282 287 3 279 297 296
          6 280 295 294 290 285
          282 3 280 283 295 3
          282 285 287 4 284 296
          297 288 6 286 290 294
          276 292 291 3 286 291
          289 3 292 276 293 12
          4 299 298 309 308 6
          299 306 300 310 311 298
          4 299 308 307 306 7
          300 314 315 313 316 312
          310 6 300 306 307 303
          305 314 6 301 311 310
          312 317 304 5 301 302
          309 298 311 7 301 304
          313 315 305 303 302 5
          302 303 307 308 309 4
          304 317 316 313 3 305
          315 314 3 312 316 317
          7 5 319 325 326 324
          320 5 319 323 321 327
          325 4 319 320 322 323
          4 320 324 318 322 5
          321 318 324 326 327 4
          321 323 322 318 3 325
          327 326 9 3 329 339
          338 6 329 330 335 334
          331 339 6 329 338 328
          336 333 330 3 330 333
          335 7 331 332 337 340
          328 338 339 3 331 334
          332 7 332 334 335 333
          336 341 337 4 336 328
          340 341 3 337 341 340
          8 4 343 353 352 350
          6 343 342 348 346 347
          353 6 343 350 351 345
          349 342 3 344 347 346
          6 344 345 351 352 353
          347 5 344 346 348 349
          345 3 348 342 349 3
          350 352 351
        </DataArray>
        <DataArray type="Int64" Name="faceoffsets" format="ascii" RangeMin="52" RangeMax="1299">
          52 111 149 215 274 347
          427 486 566 646 698 792
          858 938 1011 1091 1164 1202
          1254 1299
        </DataArray>
      </Cells>
    </Piece>
  </UnstructuredGrid>
</VTKFile>
