<?xml version="1.0"?>
<VTKFile type="UnstructuredGrid" version="0.1" byte_order="LittleEndian" header_type="UInt32" compressor="vtkZLibDataCompressor">
  <UnstructuredGrid>
    <Piece NumberOfPoints="328" NumberOfCells="20">
      <PointData>
      </PointData>
      <CellData>
        <DataArray type="Int32" Name="cellID" format="ascii" RangeMin="0" RangeMax="19">
          0 1 2 3 4 5
          6 7 8 9 10 11
          12 13 14 15 16 17
          18 19
        </DataArray>
        <DataArray type="Float64" Name="cellVolume" format="ascii" RangeMin="0.062336351497" RangeMax="0.69290528809">
          0.54559376156 0.58674769109 0.69290528809 0.54488526197 0.32415212628 0.68892495541
          0.37194346817 0.59627288905 0.4824413372 0.43402363397 0.5643389212 0.11817010207
          0.14458331709 0.36229841515 0.062336351497 0.19812703536 0.32158648927 0.64991259345
          0.21910691081 0.091649451309
        </DataArray>
        <DataArray type="Int32" Name="cellFaces" format="ascii" RangeMin="7" RangeMax="15">
          10 9 12 9 10 12
          12 12 12 11 10 8
          8 10 7 15 8 11
          11 7
        </DataArray>
        <DataArray type="Float64" Name="cellSurfaceArea" format="ascii" RangeMin="1.1020061193" RangeMax="4.9084475197">
          4.5054379191 4.5336648558 4.8098472249 4.4557568874 3.5795993159 4.7024203951
          3.1704074278 4.3126209857 3.7524832967 3.4424355499 4.401824706 2.0336126938
          1.8758261958 3.3077385766 1.1020061193 2.0702761117 3.0889772173 4.9084475197
          2.4340847881 1.4234397555
        </DataArray>
      </CellData>
      <Points>
        <DataArray type="Float32" Name="Points" NumberOfComponents="3" format="ascii" RangeMin="0.17216906193" RangeMax="1.7320508076">
          -0.15319594741 0.37226361036 -0.28548747301 0.39487484097 -0.3881483674 -1
          -1 1 -1 -0.48929479718 1 -1
          -1 0.48620325327 -0.58583772182 -1 1 -0.73679155111
          -1 0.1665969342 -1 0.06397780776 0.5617429018 -1
          0.11915683746 -0.62704914808 -1 -0.15141756833 0.16388851404 -0.22370626032
          0.2005558908 0.17665101588 -0.45269927382 -0.71481996775 1 -0.646915555
          0.28823232651 -0.074784889817 -0.43286046386 0.15316857398 -0.13322427869 -0.32882136106
          0.17508949339 -0.60874015093 -1 0.14252096415 -0.58809953928 -0.92805671692
          0.28823232651 -0.074784889817 -0.43286046386 1 -0.4926250577 -1
          0.39487484097 -0.3881483674 -1 1 1 -1
          1 0.0070904712193 -0.082799591124 0.88899570704 0.56626743078 -0.069869585335
          1 1 -0.38624402881 0.45828974247 1 -1
          0.06397780776 0.5617429018 -1 0.2005558908 0.17665101588 -0.45269927382
          0.976128757 0.019435510039 -0.078676350415 1 0.7109181881 -0.091557405889
          0.89125472307 -0.018752399832 -0.12492767721 1 -0.02989054285 -0.11024296284
          -1 -1 -1 0.14252096415 -0.58809953928 -0.92805671692
          -0.93408340216 -1 -0.66438543797 -1 -0.15308791399 -0.15678505599
          -1 0.48620325327 -0.58583772182 -0.76788842678 -1 -0.62314724922
          -1 0.1665969342 -1 -0.11740402132 -0.44963392615 -0.12124859542
          -0.14046235383 -0.081568792462 -0.057088047266 -0.11452511698 -0.43963044882 -0.11434543133
          -0.15141756833 0.16388851404 -0.22370626032 -0.39426901937 -0.18892022967 -0.028652556241
          -0.53332787752 -1 -1 0.11915683746 -0.62704914808 -1
          -0.0016215461073 -0.23712293804 -0.10420247167 0.15316857398 -0.13322427869 -0.32882136106
          0.0075532742776 -0.22477769852 -0.10902224481 0.00097424897831 -0.2239267379 -0.10271144658
          -1 -0.87431639433 -0.60298514366 -1 -1 -0.70537477732
          0.45828974247 1 -1 1 1 -0.38624402881
          -0.48929479718 1 -1 0.88899570704 0.56626743078 -0.069869585335
          -0.15319594741 0.37226361036 -0.28548747301 0.06397780776 0.5617429018 -1
          -0.13441491127 0.54839706421 -0.12287269533 0.37145918608 1 0.31042557955
          0.2005558908 0.17665101588 -0.45269927382 1 0.7109181881 -0.091557405889
          1 1 -0.0050468035042 0.4558955729 1 0.31344297528
          -0.59174567461 1 -0.46266725659 -0.71481996775 1 -0.646915555
          -0.53332787752 -1 -1 -0.11740402132 -0.44963392615 -0.12124859542
          0.61812084913 -1 -1 -0.10539707541 -0.46341896057 -0.093070484698
          -0.76788842678 -1 -0.62314724922 0.45398747921 -1 0.28395625949
          0.11915683746 -0.62704914808 -1 -0.082647524774 -0.80186164379 0.2070299983
          -0.13200703263 -1 0.29247000813 0.30397549272 -1 0.36439037323
          0.02669666335 -0.69951552153 0.17672865093 -0.015646118671 -0.55779576302 0.040804296732
          -0.089581906796 -0.5291839838 -0.018348773941 -0.036518752575 -0.53623777628 0.013128937222
          0.14252096415 -0.58809953928 -0.92805671692 0.17508949339 -0.60874015093 -1
          0.45398747921 -1 0.28395625949 1 -1 -1
          0.17508949339 -0.60874015093 -1 1 -0.02989054285 -0.11024296284
          0.61812084913 -1 -1 1 -1 0.33218356967
          0.14252096415 -0.58809953928 -0.92805671692 0.28823232651 -0.074784889817 -0.43286046386
          0.0075532742776 -0.22477769852 -0.10902224481 -0.10539707541 -0.46341896057 -0.093070484698
          -0.11740402132 -0.44963392615 -0.12124859542 -0.11452511698 -0.43963044882 -0.11434543133
          -0.0016215461073 -0.23712293804 -0.10420247167 -0.015646118671 -0.55779576302 0.040804296732
          -0.036518752575 -0.53623777628 0.013128937222 -0.019032379612 -0.53622162342 0.030666142702
          0.15316857398 -0.13322427869 -0.32882136106 0.89125472307 -0.018752399832 -0.12492767721
          1 -0.4926250577 -1 0.39487484097 -0.3881483674 -1
          -1 -0.15308791399 -0.15678505599 -0.4233071804 -1 0.64682942629
          -0.39426901937 -0.18892022967 -0.028652556241 -0.082647524774 -0.80186164379 0.2070299983
          -1 -0.13777245581 -0.04174169153 -0.47328072786 -0.76278543472 0.6772172451
          -0.53204381466 -0.80810916424 0.71978896856 -0.66668945551 -0.11837986857 0.32254061103
          -1 -0.49804773927 0.087424643338 -1 -0.87431639433 -0.60298514366
          -0.50891202688 -0.8350058198 0.72981834412 -0.13200703263 -1 0.29247000813
          -0.93408340216 -1 -0.66438543797 -0.76788842678 -1 -0.62314724922
          -0.60962414742 -0.22542499006 0.39127525687 -0.64238834381 -0.17590914667 0.37023222446
          -0.11452511698 -0.43963044882 -0.11434543133 -0.089581906796 -0.5291839838 -0.018348773941
          -0.10539707541 -0.46341896057 -0.093070484698 -0.11740402132 -0.44963392615 -0.12124859542
          0.50562083721 -0.17428740859 1 1 -1 0.33218356967
          -0.019032379612 -0.53622162342 0.030666142702 0.976128757 0.019435510039 -0.078676350415
          0.00097424897831 -0.2239267379 -0.10271144658 1 -1 1
          0.30397549272 -1 0.36439037323 0.89125472307 -0.018752399832 -0.12492767721
          0.02669666335 -0.69951552153 0.17672865093 0.83595788479 -1 1
          0.069169797003 -0.46395021677 0.34007388353 1 -0.46737414598 1
          -0.015646118671 -0.55779576302 0.040804296732 0.45398747921 -1 0.28395625949
          0.24745802581 0.12840132415 0.65849894285 0.27342700958 0.040038216859 0.82502222061
          0.0075532742776 -0.22477769852 -0.10902224481 -0.0016215461073 -0.23712293804 -0.10420247167
          1 0.0070904712193 -0.082799591124 1 -0.02989054285 -0.11024296284
          -1 -0.13777245581 -0.04174169153 -1 -0.15308791399 -0.15678505599
          -0.13441491127 0.54839706421 -0.12287269533 -1 1 -0.14239840209
          -0.093156643212 0.19833655655 0.38625279069 -0.59174567461 1 -0.46266725659
          -0.30726993084 0.19456288218 0.56005847454 -0.14046235383 -0.081568792462 -0.057088047266
          -1 0.88803625107 0.030792973936 -0.15141756833 0.16388851404 -0.22370626032
          -0.39426901937 -0.18892022967 -0.028652556241 -1 -0.079938210547 0.058647438884
          -0.66668945551 -0.11837986857 0.32254061103 -1 0.071740232408 0.11935098469
          -1 0.48620325327 -0.58583772182 -1 1 -0.73679155111
          -0.15319594741 0.37226361036 -0.28548747301 -0.71481996775 1 -0.646915555
          -0.66673469543 -0.10971751809 0.33753192425 -0.64395141602 -0.080255001783 0.3692035079
          0.24745802581 0.12840132415 0.65849894285 0.89125472307 -0.018752399832 -0.12492767721
          0.00097424897831 -0.2239267379 -0.10271144658 -0.093156643212 0.19833655655 0.38625279069
          0.40172952414 1 0.36944520473 0.28823232651 -0.074784889817 -0.43286046386
          -0.15319594741 0.37226361036 -0.28548747301 0.976128757 0.019435510039 -0.078676350415
          0.37145918608 1 0.31042557955 0.14031682909 0.27509704232 0.74746751785
          0.4558955729 1 0.31344297528 0.88899570704 0.56626743078 -0.069869585335
          -0.13441491127 0.54839706421 -0.12287269533 0.2005558908 0.17665101588 -0.45269927382
          0.0075532742776 -0.22477769852 -0.10902224481 0.15316857398 -0.13322427869 -0.32882136106
          -0.14046235383 -0.081568792462 -0.057088047266 -0.15141756833 0.16388851404 -0.22370626032
          -1 1 -0.14239840209 -0.18263612688 0.37228509784 1
          0.2366335541 1 1 0.37145918608 1 0.31042557955
          -0.55817425251 1 1 -1 0.88803625107 0.030792973936
          -1 1 0.15838702023 0.088874101639 0.340595752 1
          -0.30726993084 0.19456288218 0.56005847454 -0.093156643212 0.19833655655 0.38625279069
          -0.13441491127 0.54839706421 -0.12287269533 -0.59174567461 1 -0.46266725659
          -0.27638056874 0.20823064446 0.63447391987 0.40172952414 1 0.36944520473
          0.10404607654 0.29059684277 0.89926248789 0.14031682909 0.27509704232 0.74746751785
          -0.4233071804 -1 0.64682942629 -0.53429055214 -1 1
          -1 -0.87431639433 -0.60298514366 -1 -0.49804773927 0.087424643338
          -1 -1 1 -1 -0.93354046345 1
          -0.59017455578 -0.94079977274 1 -0.53204381466 -0.80810916424 0.71978896856
          -0.53963017464 -0.98519957066 1 -0.50891202688 -0.8350058198 0.72981834412
          -0.93408340216 -1 -0.66438543797 -1 -1 -0.70537477732
          -1 -0.49804773927 0.087424643338 -0.53204381466 -0.80810916424 0.71978896856
          -0.66673469543 -0.10971751809 0.33753192425 -0.64238834381 -0.17590914667 0.37023222446
          -1 -0.93354046345 1 -0.59017455578 -0.94079977274 1
          -0.84622466564 -0.28734645247 1 -1 -0.30427214503 1
          -1 -0.079938210547 0.058647438884 -0.6620003581 -0.11422515661 0.35863357782
          -0.66668945551 -0.11837986857 0.32254061103 -1 -0.13777245581 -0.04174169153
          0.30397549272 -1 0.36439037323 -0.13200703263 -1 0.29247000813
          -0.12420922518 -0.27522090077 0.72431814671 -0.47328072786 -0.76278543472 0.6772172451
          0.50562083721 -0.17428740859 1 0.83595788479 -1 1
          0.21224860847 0.10466266423 1 0.069169797003 -0.46395021677 0.34007388353
          -0.50891202688 -0.8350058198 0.72981834412 -0.53963017464 -0.98519957066 1
          -0.4233071804 -1 0.64682942629 -0.53429055214 -1 1
          -0.082647524774 -0.80186164379 0.2070299983 0.02669666335 -0.69951552153 0.17672865093
          0.27342700958 0.040038216859 0.82502222061 0.20578600466 0.10947072506 0.96375393867
          -0.60962414742 -0.22542499006 0.39127525687 -0.47328072786 -0.76278543472 0.6772172451
          -0.12420922518 -0.27522090077 0.72431814671 0.069169797003 -0.46395021677 0.34007388353
          -0.089581906796 -0.5291839838 -0.018348773941 -0.082647524774 -0.80186164379 0.2070299983
          -0.015646118671 -0.55779576302 0.040804296732 0.02669666335 -0.69951552153 0.17672865093
          -0.036518752575 -0.53623777628 0.013128937222 -0.019032379612 -0.53622162342 0.030666142702
          0.27342700958 0.040038216859 0.82502222061 0.14031682909 0.27509704232 0.74746751785
          -0.60962414742 -0.22542499006 0.39127525687 -0.11452511698 -0.43963044882 -0.11434543133
          0.20578600466 0.10947072506 0.96375393867 -0.12420922518 -0.27522090077 0.72431814671
          -0.66668945551 -0.11837986857 0.32254061103 0.00097424897831 -0.2239267379 -0.10271144658
          0.069169797003 -0.46395021677 0.34007388353 -0.093156643212 0.19833655655 0.38625279069
          -0.64238834381 -0.17590914667 0.37023222446 -0.6620003581 -0.11422515661 0.35863357782
          -0.14046235383 -0.081568792462 -0.057088047266 0.24745802581 0.12840132415 0.65849894285
          -0.27638056874 0.20823064446 0.63447391987 0.10404607654 0.29059684277 0.89926248789
          -0.036518752575 -0.53623777628 0.013128937222 -0.39426901937 -0.18892022967 -0.028652556241
          -0.10539707541 -0.46341896057 -0.093070484698 -0.089581906796 -0.5291839838 -0.018348773941
          -0.0016215461073 -0.23712293804 -0.10420247167 -0.019032379612 -0.53622162342 0.030666142702
          -0.30726993084 0.19456288218 0.56005847454 -0.66673469543 -0.10971751809 0.33753192425
          -0.64241445065 -0.079636633396 0.37321045995 -0.64395141602 -0.080255001783 0.3692035079
          -1 0.4550190866 1 -1 1 0.15838702023
          -1 0.071740232408 0.11935098469 -0.57855963707 0.14639535546 1
          -1 1 1 -0.55817425251 1 1
          -0.64395141602 -0.080255001783 0.3692035079 -1 0.88803625107 0.030792973936
          -0.18263612688 0.37228509784 1 -0.64241445065 -0.079636633396 0.37321045995
          -0.30726993084 0.19456288218 0.56005847454 -0.27638056874 0.20823064446 0.63447391987
          1 0.0070904712193 -0.082799591124 1 1 1
          0.088874101639 0.340595752 1 0.40172952414 1 0.36944520473
          0.976128757 0.019435510039 -0.078676350415 1 -0.46737414598 1
          0.10404607654 0.29059684277 0.89926248789 0.2366335541 1 1
          0.14031682909 0.27509704232 0.74746751785 0.24745802581 0.12840132415 0.65849894285
          0.4558955729 1 0.31344297528 0.88899570704 0.56626743078 -0.069869585335
          0.27342700958 0.040038216859 0.82502222061 0.50562083721 -0.17428740859 1
          1 1 -0.0050468035042 1 0.7109181881 -0.091557405889
          0.20578600466 0.10947072506 0.96375393867 0.21224860847 0.10466266423 1
          -0.57855963707 0.14639535546 1 -0.50891202688 -0.8350058198 0.72981834412
          -0.64241445065 -0.079636633396 0.37321045995 -0.12420922518 -0.27522090077 0.72431814671
          -0.84622466564 -0.28734645247 1 -0.27638056874 0.20823064446 0.63447391987
          0.10404607654 0.29059684277 0.89926248789 -0.59017455578 -0.94079977274 1
          -0.53204381466 -0.80810916424 0.71978896856 -0.53963017464 -0.98519957066 1
          -0.6620003581 -0.11422515661 0.35863357782 -0.47328072786 -0.76278543472 0.6772172451
          -0.64238834381 -0.17590914667 0.37023222446 -0.60962414742 -0.22542499006 0.39127525687
          -0.18263612688 0.37228509784 1 0.20578600466 0.10947072506 0.96375393867
          0.088874101639 0.340595752 1 0.21224860847 0.10466266423 1
          -0.84622466564 -0.28734645247 1 -0.6620003581 -0.11422515661 0.35863357782
          -0.66673469543 -0.10971751809 0.33753192425 -1 0.4550190866 1
          -1 -0.30427214503 1 -0.57855963707 0.14639535546 1
          -1 -0.079938210547 0.058647438884 -1 0.071740232408 0.11935098469
          -0.64395141602 -0.080255001783 0.3692035079 -0.64241445065 -0.079636633396 0.37321045995
        </DataArray>
      </Points>
      <Cells>
        <DataArray type="Int64" Name="connectivity" format="ascii" RangeMin="0" RangeMax="327">
          0 1 2 3 4 5
          6 7 8 9 10 11
          12 13 14 15 16 17
          18 19 20 21 22 23
          24 25 26 27 28 29
          30 31 32 33 34 35
          36 37 38 39 40 41
          42 43 44 45 46 47
          48 49 50 51 52 53
          54 55 56 57 58 59
          60 61 62 63 64 65
          66 67 68 69 70 71
          72 73 74 75 76 77
          78 79 80 81 82 83
          84 85 86 87 88 89
          90 91 92 93 94 95
          96 97 98 99 100 101
          102 103 104 105 106 107
          108 109 110 111 112 113
          114 115 116 117 118 119
          120 121 122 123 124 125
          126 127 128 129 130 131
          132 133 134 135 136 137
          138 139 140 141 142 143
          144 145 146 147 148 149
          150 151 152 153 154 155
          156 157 158 159 160 161
          162 163 164 165 166 167
          168 169 170 171 172 173
          174 175 176 177 178 179
          180 181 182 183 184 185
          186 187 188 189 190 191
          192 193 194 195 196 197
          198 199 200 201 202 203
          204 205 206 207 208 209
          210 211 212 213 214 215
          216 217 218 219 220 221
          222 223 224 225 226 227
          228 229 230 231 232 233
          234 235 236 237 238 239
          240 241 242 243 244 245
          246 247 248 249 250 251
          252 253 254 255 256 257
          258 259 260 261 262 263
          264 265 266 267 268 269
          270 271 272 273 274 275
          276 277 278 279 280 281
          282 283 284 285 286 287
          288 289 290 291 292 293
          294 295 296 297 298 299
          300 301 302 303 304 305
          306 307 308 309 310 311
          312 313 314 315 316 317
          318 319 320 321 322 323
          324 325 326 327
        </DataArray>
        <DataArray type="Int64" Name="offsets" format="ascii" RangeMin="16" RangeMax="328">
          16 30 50 64 80 100
          120 140 160 178 194 206
          218 234 244 270 282 300
          318 328
        </DataArray>
        <DataArray type="UInt8" Name="types" format="ascii" RangeMin="42" RangeMax="42">
          42 42 42 42 42 42
          42 42 42 42 42 42
          42 42 42 42 42 42
          42 42
        </DataArray>
        <DataArray type="Int64" Name="faces" format="ascii" RangeMin="0" RangeMax="327">
          10 5 1 14 15 13
          12 7 1 7 3 2
          6 8 14 4 1 12
          10 7 4 2 5 4
          6 4 2 3 11 5
          5 3 7 10 0 11
          5 4 5 11 0 9
          6 4 9 13 15 8
          6 3 8 15 14 5
          9 0 10 12 13 9
          5 17 18 16 28 29
          5 17 19 23 24 18
          6 17 29 20 27 22
          19 4 18 24 25 16
          3 19 22 23 4 20
          29 28 26 4 20 26
          21 27 6 21 25 24
          23 22 27 5 21 26
          28 16 25 12 5 31
          43 42 35 37 6 31
          45 40 34 36 43 6
          31 37 39 44 46 45
          3 32 49 48 5 32
          35 42 30 49 7 32
          48 33 41 39 37 35
          5 33 34 40 38 41
          6 33 48 49 30 36
          34 4 36 30 42 43
          5 38 40 45 46 47
          5 38 47 44 39 41
          3 44 47 46 9 6
          51 50 55 58 53 59
          8 51 60 61 57 62
          63 52 50 3 51 59
          60 5 52 63 54 58
          55 3 52 55 50 4
          53 61 60 59 6 53
          58 54 56 57 61 4
          54 63 62 56 3 56
          62 57 10 5 65 68
          64 70 78 6 65 67
          76 71 72 68 8 65
          78 79 66 69 75 77
          67 6 66 64 68 72
          73 69 4 66 79 70
          64 3 67 77 76 4
          69 73 74 75 3 70
          79 78 5 71 76 77
          75 74 4 71 74 73
          72 12 5 81 98 99
          82 84 4 81 85 83
          98 4 81 84 80 85
          5 82 99 87 96 86
          8 82 86 90 89 94
          93 80 84 5 83 97
          87 99 98 8 83 85
          80 93 95 92 88 97
          6 86 96 88 92 91
          90 4 87 97 88 96
          5 89 91 92 95 94
          3 89 90 91 3 93
          94 95 12 5 101 110
          105 103 111 6 101 112
          109 108 106 110 4 101
          111 113 112 7 102 100
          109 112 113 119 116 4
          102 107 104 100 7 102
          116 118 117 114 115 107
          6 103 117 118 119 113
          111 4 103 105 114 117
          4 104 108 109 100 5
          104 107 115 106 108 5
          105 110 106 115 114 3
          116 119 118 12 8 121
          139 127 136 137 122 132
          133 5 121 125 131 138
          139 5 121 133 126 129
          125 6 122 137 124 134
          135 130 4 122 130 128
          132 4 123 127 139 138
          5 123 134 124 136 127
          6 123 138 131 120 135
          134 3 124 137 136 4
          125 129 120 131 4 126
          133 132 128 6 126 128
          130 135 120 129 12 4
          141 140 152 150 8 141
          154 155 143 148 153 151
          140 5 141 150 147 149
          154 4 142 145 157 156
          6 142 144 146 148 143
          145 5 142 156 149 147
          144 4 143 155 157 145
          7 144 147 150 152 158
          159 146 4 146 159 153
          148 5 149 156 157 155
          154 4 151 153 159 158
          4 151 158 152 140 11
          5 161 167 171 173 165
          5 161 174 162 160 167
          4 161 165 175 174 5
          162 174 175 177 176 5
          162 176 163 169 160 5
          163 176 177 166 172 5
          163 172 168 164 169 6
          164 170 171 167 160 169
          3 164 168 170 5 165
          173 166 177 175 6 166
          173 171 170 168 172 10
          4 179 185 192 190 4
          179 182 180 185 6 179
          190 186 183 184 182 5
          180 191 193 192 185 7
          180 182 184 178 189 181
          191 3 181 189 188 5
          181 188 187 193 191 3
          183 178 184 6 183 186
          187 188 189 178 5 186
          190 192 193 187 8 4
          195 202 203 194 5 195
          198 199 200 202 5 195
          194 204 205 198 3 196
          205 204 5 196 197 199
          198 205 6 196 204 194
          203 201 197 4 197 201
          200 199 4 200 201 203
          202 8 5 207 209 216
          217 206 5 207 211 212
          215 209 4 207 206 210
          211 4 208 214 217 216
          5 208 215 212 213 214
          4 208 216 209 215 4
          210 213 212 211 5 210
          206 217 214 213 10 4
          219 218 231 230 5 219
          228 229 223 218 5 219
          230 221 226 228 6 220
          233 224 227 226 221 4
          220 225 232 233 5 220
          221 230 231 225 4 222
          224 233 232 5 222 223
          229 227 224 6 222 232
          225 231 218 223 4 226
          227 229 228 7 3 235
          234 236 4 235 239 238
          234 5 235 236 237 241
          239 6 236 234 238 242
          243 237 4 237 243 240
          241 5 238 239 241 240
          242 3 240 243 242 15
          5 245 257 244 248 259
          5 245 253 256 251 257
          5 245 259 258 266 253
          8 246 254 255 268 258
          259 248 249 7 246 263
          262 247 261 250 254 6
          246 249 252 265 260 263
          5 247 262 260 265 264
          5 247 264 251 256 261
          4 248 244 252 249 4
          250 267 255 254 7 250
          261 256 253 266 269 267
          6 251 264 265 252 244
          257 4 255 267 269 268
          4 258 268 269 266 3
          260 262 263 8 6 271
          277 280 281 278 275 5
          271 274 270 272 277 3
          271 275 274 4 272 276
          280 277 5 272 270 273
          279 276 4 273 278 281
          279 5 273 270 274 275
          278 4 276 279 281 280
          11 6 283 287 295 299
          284 289 5 283 296 297
          282 287 5 283 289 285
          292 296 4 284 299 298
          288 5 284 288 290 285
          289 6 285 290 291 286
          293 292 4 286 282 297
          293 6 286 291 294 295
          287 282 5 288 298 294
          291 290 4 292 293 297
          296 4 294 298 299 295
          11 4 301 308 307 309
          5 301 311 313 312 308
          6 301 309 317 315 303
          311 4 302 305 314 300
          8 302 310 312 313 303
          315 306 305 4 302 300
          304 310 3 303 313 311
          5 304 307 308 312 310
          7 304 300 314 316 317
          309 307 4 305 306 316
          314 4 306 315 317 316
          7 4 319 327 326 320
          4 319 318 323 327 5
          319 320 324 322 318 4
          320 326 325 324 5 321
          325 326 327 323 4 321
          322 324 325 4 321 323
          318 322
        </DataArray>
        <DataArray type="Int64" Name="faceoffsets" format="ascii" RangeMin="59" RangeMax="1208">
          59 111 184 236 295 368
          441 514 587 653 712 757
          802 861 899 993 1038 1104
          1170 1208
        </DataArray>
      </Cells>
    </Piece>
  </UnstructuredGrid>
</VTKFile>
