<?xml version="1.0"?>
<VTKFile type="UnstructuredGrid" version="0.1" byte_order="LittleEndian" header_type="UInt32" compressor="vtkZLibDataCompressor">
  <UnstructuredGrid>
    <Piece NumberOfPoints="326" NumberOfCells="20">
      <PointData>
      </PointData>
      <CellData>
        <DataArray type="Int32" Name="cellID" format="ascii" RangeMin="0" RangeMax="19">
          0 1 2 3 4 5
          6 7 8 9 10 11
          12 13 14 15 16 17
          18 19
        </DataArray>
        <DataArray type="Float64" Name="cellVolume" format="ascii" RangeMin="0.096514180293" RangeMax="1.2028047861">
          0.38342119713 0.79942861542 0.45668803401 0.6634246562 0.24409386721 0.58035438951
          1.2028047861 0.45970685308 0.26997052317 0.39556820649 0.30540474631 0.32486052855
          0.43816742806 0.23971256321 0.19508531032 0.43189791121 0.10577013576 0.26690993903
          0.096514180293 0.14021612896
        </DataArray>
        <DataArray type="Int32" Name="cellFaces" format="ascii" RangeMin="6" RangeMax="16">
          6 13 12 11 8 10
          14 11 9 8 12 7
          10 16 10 10 10 11
          7 8
        </DataArray>
        <DataArray type="Float64" Name="cellSurfaceArea" format="ascii" RangeMin="1.3228630276" RangeMax="6.8633498633">
          3.8200280271 5.2879228494 3.6526605889 4.6148561779 2.6928579205 4.3155196028
          6.8633498633 3.6791302383 2.5972290821 3.5878867682 2.7478209368 3.216747372
          3.7107880376 2.4045941585 2.2552361642 3.5451411891 1.6222494719 2.6561194346
          1.3228630276 1.7232161504
        </DataArray>
      </CellData>
      <Points>
        <DataArray type="Float32" Name="Points" NumberOfComponents="3" format="ascii" RangeMin="0.26821475098" RangeMax="1.7320508076">
          -1 -1 -1 0.94073307514 -1 -1
          0.63306492567 -0.50488221645 -1 -1 -0.44308301806 -0.80976945162
          -1 -0.37774154544 -1 -0.038171384484 -0.68478536606 -0.32410097122
          -1 -1 -0.58650439978 -0.0044728019275 -1 -0.1841121316
          -1 -0.37774154544 -1 0.018286596984 -0.59015500546 -0.24902932346
          -0.13733771443 0.2407272011 -0.11959426105 0.0058799921535 0.4049179554 -0.37482753396
          -1 -0.28460282087 -0.7419552207 1 -0.016621012241 -0.72244858742
          1 -0.18387888372 -1 0.44811570644 0.12412752211 -0.21379180253
          1 0.06538323313 -1 0.41881233454 0.37187051773 -1
          -0.13761638105 0.29290708899 -0.13433012366 0.63306492567 -0.50488221645 -1
          0.52297878265 -0.15548087656 -0.26038357615 0.93478310108 -0.01231346745 -0.62062507868
          -0.039306420833 0.362770468 -0.15152405202 0.046952355653 0.31242895126 -0.13509766757
          0.012456926517 0.4386664331 -1 -1 -0.27257990837 -1
          -1 -0.44308301806 -0.80976945162 -0.038171384484 -0.68478536606 -0.32410097122
          -0.68276017904 -0.074975565076 -0.45795425773 -0.22982801497 0.033384863287 -0.13417781889
          0.41881233454 0.37187051773 -1 0.0058799921535 0.4049179554 -0.37482753396
          0.48970156908 1 -0.14114142954 1 0.90256470442 -1
          1 0.06538323313 -1 0.98012149334 1 -0.0054121417925
          1 1 -0.85146743059 0.93478310108 -0.01231346745 -0.62062507868
          1 0.61275917292 -0.0079884715378 1 1 -0.011314457282
          0.82562929392 0.57134872675 0.044141232967 0.43524321914 0.31511411071 -0.0087219569832
          0.046952355653 0.31242895126 -0.13509766757 -0.0032445155084 0.52718001604 -0.17574721575
          1 -0.016621012241 -0.72244858742 1 -0.0074988123961 -0.65119045973
          0.18874678016 0.32285061479 -0.078608728945 0.44811570644 0.12412752211 -0.21379180253
          -0.039010360837 0.36497625709 -0.15071493387 -0.039306420833 0.362770468 -0.15152405202
          -1 -0.27257990837 -1 -0.067479096353 0.38379523158 -0.12888792157
          -1 1 -1 -0.017212169245 1 -1
          -1 -0.16385422647 -0.58147895336 -0.016598803923 0.77646774054 -0.16241686046
          -1 1 -0.40359032154 -0.028039732948 1 -0.19036731124
          0.012456926517 0.4386664331 -1 0.0058799921535 0.4049179554 -0.37482753396
          -0.13769191504 0.2935436666 -0.13401910663 -0.0032445155084 0.52718001604 -0.17574721575
          -0.039010360837 0.36497625709 -0.15071493387 -1 0.3276758492 -0.32707190514
          -0.13761638105 0.29290708899 -0.13433012366 -0.039306420833 0.362770468 -0.15152405202
          -1 -0.28460282087 -0.7419552207 -0.68276017904 -0.074975565076 -0.45795425773
          0.0058799921535 0.4049179554 -0.37482753396 1 0.90256470442 -1
          -0.017212169245 1 -1 1 1 -1
          -0.0032445155084 0.52718001604 -0.17574721575 1 1 -0.85146743059
          -0.028039732948 1 -0.19036731124 0.48970156908 1 -0.14114142954
          0.012456926517 0.4386664331 -1 0.41881233454 0.37187051773 -1
          -0.016598803923 0.77646774054 -0.16241686046 0.0049423621967 1 -0.14986087382
          -0.0044728019275 -1 -0.1841121316 1 -1 -1
          0.75117862225 -0.54514193535 0.23554627597 0.63306492567 -0.50488221645 -1
          0.94073307514 -1 -1 1 -0.58864814043 0.21069628
          0.52297878265 -0.15548087656 -0.26038357615 0.25304463506 -1 0.26883348823
          1 -0.016621012241 -0.72244858742 1 -0.18387888372 -1
          0.44159370661 -1 0.40339738131 1 -1 0.32136178017
          0.93478310108 -0.01231346745 -0.62062507868 1 -0.0074988123961 -0.65119045973
          0.018286596984 -0.59015500546 -0.24902932346 -0.038171384484 -0.68478536606 -0.32410097122
          -1 -1 -0.58650439978 -1 -0.44308301806 -0.80976945162
          -0.22982801497 0.033384863287 -0.13417781889 -0.68276017904 -0.074975565076 -0.45795425773
          -1 -1 1 0.088322483003 -0.5192617774 1
          -1 -0.88812971115 1 -1 -0.25107941031 0.11229199171
          -0.21358652413 -0.039553645998 0.48847579956 0.13632754982 -1 1
          -0.13310731947 -0.35736721754 1 -0.17605358362 0.0067582814954 0.21837125719
          -0.0044728019275 -1 -0.1841121316 -0.038171384484 -0.68478536606 -0.32410097122
          0.028487036005 -0.31053796411 0.80799204111 -0.11052761972 -0.20407085121 0.80237185955
          -0.12440713495 -0.18318940699 0.76471179724 -0.11258241534 -0.20504020154 0.80524849892
          0.018286596984 -0.59015500546 -0.24902932346 0.25304463506 -1 0.26883348823
          0.28844219446 -1 0.56186670065 0.1095828861 -0.4700229466 0.92460209131
          -1 -0.28460282087 -0.7419552207 -1 -0.16385422647 -0.58147895336
          0.1095828861 -0.4700229466 0.92460209131 0.44159370661 -1 0.40339738131
          0.44811570644 0.12412752211 -0.21379180253 0.32446402311 -0.20140899718 0.79230797291
          0.018286596984 -0.59015500546 -0.24902932346 0.25304463506 -1 0.26883348823
          0.28844219446 -1 0.56186670065 -0.22982801497 0.033384863287 -0.13417781889
          0.63792681694 0.058457180858 0.55507671833 0.028487036005 -0.31053796411 0.80799204111
          0.52297878265 -0.15548087656 -0.26038357615 0.75117862225 -0.54514193535 0.23554627597
          -0.17605358362 0.0067582814954 0.21837125719 -0.13733771443 0.2407272011 -0.11959426105
          0.43524321914 0.31511411071 -0.0087219569832 0.45815247297 0.30679810047 0.083538986742
          0.046952355653 0.31242895126 -0.13509766757 0.18874678016 0.32285061479 -0.078608728945
          0.52297878265 -0.15548087656 -0.26038357615 1 0.61275917292 -0.0079884715378
          1 -0.0074988123961 -0.65119045973 0.82562929392 0.57134872675 0.044141232967
          0.45815247297 0.30679810047 0.083538986742 1 -0.58864814043 0.21069628
          0.6771826148 0.11221754551 0.58316320181 1 0.10949993879 0.57928860188
          0.43524321914 0.31511411071 -0.0087219569832 0.75117862225 -0.54514193535 0.23554627597
          0.63792681694 0.058457180858 0.55507671833 0.60930234194 0.35402545333 0.30246770382
          0.93478310108 -0.01231346745 -0.62062507868 0.44811570644 0.12412752211 -0.21379180253
          -0.13832907379 0.57969099283 0.26461145282 -1 1 0.99460047483
          -1 1 -0.40359032154 -0.16380757093 1 0.56949335337
          -1 0.95065844059 0.96032994986 -1 0.3276758492 -0.32707190514
          -0.067479096353 0.38379523158 -0.12888792157 0.0049423621967 1 -0.14986087382
          -0.016598803923 0.77646774054 -0.16241686046 -0.028039732948 1 -0.19036731124
          -0.19862961769 0.47515869141 0.22266353667 -0.13769191504 0.2935436666 -0.13401910663
          0.18874678016 0.32285061479 -0.078608728945 0.98012149334 1 -0.0054121417925
          -0.0032445155084 0.52718001604 -0.17574721575 0.48970156908 1 -0.14114142954
          0.020996106789 0.63676911592 0.51198393106 -0.10958913714 1 0.63809502125
          0.0049423621967 1 -0.14986087382 0.30412581563 0.58763438463 0.60897600651
          -0.16380757093 1 0.56949335337 0.54211628437 0.44554290175 0.46116304398
          0.75760161877 1 0.37061813474 0.12569388747 1 0.73917925358
          -0.016598803923 0.77646774054 -0.16241686046 -0.13832907379 0.57969099283 0.26461145282
          0.60930234194 0.35402545333 0.30246770382 0.82562929392 0.57134872675 0.044141232967
          0.45815247297 0.30679810047 0.083538986742 0.43524321914 0.31511411071 -0.0087219569832
          -0.039010360837 0.36497625709 -0.15071493387 -0.067479096353 0.38379523158 -0.12888792157
          -1 -0.25107941031 0.11229199171 -0.12440713495 -0.18318940699 0.76471179724
          -1 0.73776680231 1 -0.93554019928 0.72075724602 1
          -1 -0.88812971115 1 -0.13310731947 -0.35736721754 1
          -0.21358652413 -0.039553645998 0.48847579956 -0.21632920206 -0.023680813611 0.50207543373
          -0.11258241534 -0.20504020154 0.80524849892 -0.21556130052 -0.12280278653 1
          -1 -0.25107941031 0.11229199171 -1 -0.16385422647 -0.58147895336
          -1 0.3276758492 -0.32707190514 -1 0.87386584282 1
          -0.13769191504 0.2935436666 -0.13401910663 -1 0.73776680231 1
          -0.93554019928 0.72075724602 1 -1 0.95065844059 0.96032994986
          -0.13761638105 0.29290708899 -0.13433012366 -0.19862961769 0.47515869141 0.22266353667
          -0.21632920206 -0.023680813611 0.50207543373 -0.21358652413 -0.039553645998 0.48847579956
          -0.17605358362 0.0067582814954 0.21837125719 -0.68276017904 -0.074975565076 -0.45795425773
          -0.13733771443 0.2407272011 -0.11959426105 -0.22982801497 0.033384863287 -0.13417781889
          0.046952355653 0.31242895126 -0.13509766757 0.54211628437 0.44554290175 0.46116304398
          0.42375820875 0.41380620003 0.73940491676 0.30412581563 0.58763438463 0.60897600651
          0.0098683536053 0.196323663 0.76667916775 0.020996106789 0.63676911592 0.51198393106
          -0.21632920206 -0.023680813611 0.50207543373 0.32446402311 -0.20140899718 0.79230797291
          0.57904028893 0.2686355412 0.74784368277 0.63792681694 0.058457180858 0.55507671833
          -0.039010360837 0.36497625709 -0.15071493387 -0.12440713495 -0.18318940699 0.76471179724
          0.028487036005 -0.31053796411 0.80799204111 -0.11052761972 -0.20407085121 0.80237185955
          -0.13733771443 0.2407272011 -0.11959426105 0.18874678016 0.32285061479 -0.078608728945
          -0.19862961769 0.47515869141 0.22266353667 -0.13832907379 0.57969099283 0.26461145282
          0.45815247297 0.30679810047 0.083538986742 0.60930234194 0.35402545333 0.30246770382
          0.6771826148 0.11221754551 0.58316320181 0.63954114914 0.13455827534 0.75751417875
          -0.21358652413 -0.039553645998 0.48847579956 -0.17605358362 0.0067582814954 0.21837125719
          -0.067479096353 0.38379523158 -0.12888792157 -0.13769191504 0.2935436666 -0.13401910663
          -0.039306420833 0.362770468 -0.15152405202 -0.13761638105 0.29290708899 -0.13433012366
          0.57904028893 0.2686355412 0.74784368277 1 1 -0.011314457282
          0.54211628437 0.44554290175 0.46116304398 0.69770884514 0.30222031474 1
          0.60930234194 0.35402545333 0.30246770382 1 0.16278187931 1
          1 0.96574193239 1 1 1 0.9619269371
          0.75760161877 1 0.37061813474 1 0.61275917292 -0.0079884715378
          0.6771826148 0.11221754551 0.58316320181 1 0.10949993879 0.57928860188
          0.75464260578 0.1644744426 1 0.63954114914 0.13455827534 0.75751417875
          0.82562929392 0.57134872675 0.044141232967 0.98012149334 1 -0.0054121417925
          1 0.16278187931 1 1 -1 0.32136178017
          0.6771826148 0.11221754551 0.58316320181 1 0.10949993879 0.57928860188
          0.32446402311 -0.20140899718 0.79230797291 1 -1 1
          0.75117862225 -0.54514193535 0.23554627597 0.75464260578 0.1644744426 1
          0.44159370661 -1 0.40339738131 1 -0.58864814043 0.21069628
          0.63792681694 0.058457180858 0.55507671833 0.63954114914 0.13455827534 0.75751417875
          0.13632754982 -1 1 0.28844219446 -1 0.56186670065
          0.088322483003 -0.5192617774 1 0.1095828861 -0.4700229466 0.92460209131
          0.0098683536053 0.196323663 0.76667916775 -0.21556130052 -0.12280278653 1
          0.75464260578 0.1644744426 1 0.028487036005 -0.31053796411 0.80799204111
          0.69770884514 0.30222031474 1 0.63954114914 0.13455827534 0.75751417875
          -0.11075671017 0.30609413981 1 0.57904028893 0.2686355412 0.74784368277
          0.42375820875 0.41380620003 0.73940491676 0.39334025979 0.59649896622 1
          0.1095828861 -0.4700229466 0.92460209131 0.088322483003 -0.5192617774 1
          -0.13310731947 -0.35736721754 1 0.32446402311 -0.20140899718 0.79230797291
          -0.11258241534 -0.20504020154 0.80524849892 -0.11052761972 -0.20407085121 0.80237185955
          -1 0.87386584282 1 -0.93554019928 0.72075724602 1
          -0.19862961769 0.47515869141 0.22266353667 -1 0.95065844059 0.96032994986
          -0.13832907379 0.57969099283 0.26461145282 -0.11075671017 0.30609413981 1
          -1 1 1 -0.26005700231 1 1
          0.0098683536053 0.196323663 0.76667916775 -0.21556130052 -0.12280278653 1
          -0.21632920206 -0.023680813611 0.50207543373 -0.11258241534 -0.20504020154 0.80524849892
          -1 1 0.99460047483 0.020996106789 0.63676911592 0.51198393106
          -0.16380757093 1 0.56949335337 -0.10958913714 1 0.63809502125
          -0.12440713495 -0.18318940699 0.76471179724 -0.11052761972 -0.20407085121 0.80237185955
          0.42375820875 0.41380620003 0.73940491676 0.0098683536053 0.196323663 0.76667916775
          0.12569388747 1 0.73917925358 -0.10958913714 1 0.63809502125
          -0.11075671017 0.30609413981 1 0.18820767105 1 1
          -0.26005700231 1 1 0.39334025979 0.59649896622 1
          0.30412581563 0.58763438463 0.60897600651 0.020996106789 0.63676911592 0.51198393106
          0.12569388747 1 0.73917925358 1 1 0.9619269371
          0.18820767105 1 1 1 0.96574193239 1
          0.39334025979 0.59649896622 1 0.75760161877 1 0.37061813474
          0.42375820875 0.41380620003 0.73940491676 1 1 1
          0.30412581563 0.58763438463 0.60897600651 0.54211628437 0.44554290175 0.46116304398
          0.57904028893 0.2686355412 0.74784368277 0.69770884514 0.30222031474 1
        </DataArray>
      </Points>
      <Cells>
        <DataArray type="Int64" Name="connectivity" format="ascii" RangeMin="0" RangeMax="325">
          0 1 2 3 4 5
          6 7 8 9 10 11
          12 13 14 15 16 17
          18 19 20 21 22 23
          24 25 26 27 28 29
          30 31 32 33 34 35
          36 37 38 39 40 41
          42 43 44 45 46 47
          48 49 50 51 52 53
          54 55 56 57 58 59
          60 61 62 63 64 65
          66 67 68 69 70 71
          72 73 74 75 76 77
          78 79 80 81 82 83
          84 85 86 87 88 89
          90 91 92 93 94 95
          96 97 98 99 100 101
          102 103 104 105 106 107
          108 109 110 111 112 113
          114 115 116 117 118 119
          120 121 122 123 124 125
          126 127 128 129 130 131
          132 133 134 135 136 137
          138 139 140 141 142 143
          144 145 146 147 148 149
          150 151 152 153 154 155
          156 157 158 159 160 161
          162 163 164 165 166 167
          168 169 170 171 172 173
          174 175 176 177 178 179
          180 181 182 183 184 185
          186 187 188 189 190 191
          192 193 194 195 196 197
          198 199 200 201 202 203
          204 205 206 207 208 209
          210 211 212 213 214 215
          216 217 218 219 220 221
          222 223 224 225 226 227
          228 229 230 231 232 233
          234 235 236 237 238 239
          240 241 242 243 244 245
          246 247 248 249 250 251
          252 253 254 255 256 257
          258 259 260 261 262 263
          264 265 266 267 268 269
          270 271 272 273 274 275
          276 277 278 279 280 281
          282 283 284 285 286 287
          288 289 290 291 292 293
          294 295 296 297 298 299
          300 301 302 303 304 305
          306 307 308 309 310 311
          312 313 314 315 316 317
          318 319 320 321 322 323
          324 325
        </DataArray>
        <DataArray type="Int64" Name="offsets" format="ascii" RangeMin="8" RangeMax="326">
          8 30 50 68 80 96
          120 138 152 164 184 194
          210 238 254 270 286 304
          314 326
        </DataArray>
        <DataArray type="UInt8" Name="types" format="ascii" RangeMin="42" RangeMax="42">
          42 42 42 42 42 42
          42 42 42 42 42 42
          42 42 42 42 42 42
          42 42
        </DataArray>
        <DataArray type="Int64" Name="faces" format="ascii" RangeMin="0" RangeMax="325">
          6 4 1 7 5 2
          4 1 0 6 7 4
          1 2 4 0 4 2
          5 3 4 4 3 5
          7 6 4 3 6 0
          4 13 6 9 27 26
          12 28 29 7 9 20
          21 13 14 19 27 6
          9 29 10 23 15 20
          4 10 29 28 18 4
          10 18 22 23 7 11
          22 18 28 12 25 24
          8 11 17 16 13 21
          15 23 22 3 11 24
          17 4 12 26 8 25
          3 13 16 14 7 14
          16 17 24 25 8 19
          3 15 21 20 4 19
          8 26 27 12 4 31
          43 48 49 6 31 30
          33 36 32 43 8 31
          49 42 47 37 44 34
          30 7 32 35 40 41
          46 48 43 4 32 36
          39 35 7 33 34 44
          45 38 39 36 3 33
          30 34 4 35 39 38
          40 3 37 45 44 6
          37 47 41 40 38 45
          4 41 47 42 46 4
          42 49 48 46 11 5
          51 62 65 64 60 4
          51 55 61 62 6 51
          60 63 56 57 55 4
          52 50 58 53 6 52
          56 63 54 66 50 4
          52 53 57 56 6 53
          58 59 61 55 57 3
          54 67 66 5 54 63
          60 64 67 7 58 50
          66 67 64 65 59 4
          59 65 62 61 8 6
          69 77 68 72 75 73
          5 69 71 70 76 77
          3 69 73 71 6 70
          74 78 72 68 76 6
          70 71 73 75 79 74
          4 72 78 79 75 3
          74 79 78 3 76 68
          77 10 4 81 89 83
          84 6 81 91 85 93
          88 89 6 81 84 80
          87 90 91 4 82 85
          91 90 5 82 86 92
          93 85 5 82 90 87
          94 86 4 83 95 80
          84 7 83 89 88 92
          86 94 95 4 87 80
          95 94 3 88 93 92
          14 4 97 96 108 109
          7 97 118 119 103 102
          100 96 6 97 109 114
          98 99 118 6 98 107
          104 103 119 99 7 98
          114 115 116 117 110 107
          3 99 119 118 5 100
          102 106 101 105 6 100
          105 116 115 108 96 4
          101 117 116 105 6 101
          106 113 111 110 117 6
          102 103 104 112 113 106
          5 104 107 110 111 112
          4 108 115 114 109 3
          111 113 112 11 6 121
          126 120 123 128 131 3
          121 125 126 5 121 131
          130 124 125 4 122 134
          137 136 6 122 130 131
          128 135 134 6 122 136
          133 127 124 130 8 123
          129 132 133 136 137 135
          128 3 123 120 129 7
          124 127 132 129 120 126
          125 3 127 133 132 3
          134 135 137 9 6 139
          141 146 151 150 140 5
          139 145 144 149 141 4
          139 140 143 145 5 140
          150 138 147 143 4 141
          149 142 146 6 142 148
          147 138 151 146 4 142
          149 144 148 5 143 147
          148 144 145 3 150 151
          138 8 5 153 155 152
          162 156 5 153 154 161
          159 155 4 153 156 157
          154 6 154 157 163 158
          160 161 5 155 159 160
          158 152 4 156 162 163
          157 4 158 163 162 152
          3 159 161 160 12 7
          165 167 166 182 164 181
          179 7 165 174 175 169
          172 170 167 5 165 179
          178 173 174 4 166 176
          183 182 4 166 167 170
          176 4 168 177 172 169
          9 168 171 173 178 180
          164 182 183 177 4 168
          169 175 171 5 170 172
          177 183 176 4 171 175
          174 173 4 178 179 181
          180 3 180 181 164 7
          3 185 191 190 5 185
          192 193 187 191 6 185
          190 184 188 189 192 5
          186 184 190 191 187 3
          186 188 184 5 186 187
          193 189 188 3 189 193
          192 10 5 195 207 202
          198 196 6 195 194 205
          206 209 207 6 195 196
          201 197 199 194 4 196
          198 203 201 5 197 201
          203 204 200 3 197 200
          199 7 198 202 208 206
          205 204 203 5 199 200
          204 205 194 4 202 207
          209 208 3 206 208 209
          16 5 211 229 230 231
          218 9 211 213 215 227
          234 220 225 228 229 4
          211 218 212 213 4 212
          214 215 213 7 212 218
          231 217 222 223 214 7
          214 223 221 216 226 227
          215 3 216 221 232 7
          216 232 233 224 237 235
          226 4 217 231 230 219
          8 217 219 228 225 210
          224 233 222 4 219 230
          229 228 5 220 234 235
          237 236 4 220 236 210
          225 5 221 223 222 233
          232 4 224 210 236 237
          4 226 235 234 227 10
          4 239 253 252 247 4
          239 245 246 253 6 239
          247 249 243 244 245 5
          240 238 251 248 242 6
          240 246 245 244 241 238
          5 240 242 252 253 246
          4 241 250 251 238 4
          241 244 243 250 5 242
          248 249 247 252 5 243
          249 248 251 250 10 4
          255 263 260 262 5 255
          259 254 257 263 5 255
          262 267 266 259 4 256
          265 258 264 5 256 257
          254 261 265 5 256 264
          260 263 257 6 258 269
          267 262 260 264 5 258
          265 261 268 269 5 259
          266 268 261 254 4 266
          267 269 268 10 3 271
          282 284 7 271 276 279
          274 272 281 282 5 271
          284 285 270 276 5 272
          275 283 280 281 4 272
          274 277 275 6 273 285
          284 282 281 280 7 273
          283 275 277 278 270 285
          3 273 280 283 4 274
          279 278 277 4 276 270
          278 279 11 5 287 295
          297 302 296 6 287 286
          292 293 291 295 5 287
          296 288 289 286 5 288
          290 300 298 289 7 288
          296 302 303 294 299 290
          4 289 298 292 286 4
          290 299 301 300 5 291
          294 303 297 295 5 291
          293 301 299 294 5 292
          298 300 301 293 3 297
          303 302 7 4 305 304
          312 313 4 305 308 311
          304 5 305 313 307 310
          308 4 306 307 313 312
          4 306 309 310 307 5
          306 312 304 311 309 4
          308 310 309 311 8 6
          315 319 323 324 325 317
          5 315 321 316 314 319
          3 315 317 321 5 316
          318 320 322 314 5 316
          321 317 325 318 4 318
          325 324 320 4 319 314
          322 323 4 320 324 323
          322
        </DataArray>
        <DataArray type="Int64" Name="faceoffsets" format="ascii" RangeMin="31" RangeMax="1201">
          31 111 184 250 295 354
          441 507 559 604 677 715
          774 875 934 993 1052 1118
          1156 1201
        </DataArray>
      </Cells>
    </Piece>
  </UnstructuredGrid>
</VTKFile>
